<?xml version="1.0" encoding="UTF-8"?>

<!-- generated on 2025-02-22 17:14:41 by Eclipse SUMO GUI Version 1.16.0
<configuration xmlns:xsi="http://www.w3.org/2001/XMLSchema-instance" xsi:noNamespaceSchemaLocation="http://sumo.dlr.de/xsd/sumoConfiguration.xsd">

    <input>
        <net-file value="/Users/shakibanaderian/Desktop/Multimodal SVCC project/CET593/Multiscale-Traffic-Control/SourceCodes/environment/network_model/single_intersection_pedestrian_X.net.xml"/>
        <route-files value="/Users/shakibanaderian/Desktop/Multimodal SVCC project/CET593/Multiscale-Traffic-Control/SourceCodes/environment/network_model/single_intersection.rou.xml"/>
        <additional-files value="/Users/shakibanaderian/Desktop/Multimodal SVCC project/CET593/Multiscale-Traffic-Control/SourceCodes/environment/network_model/single_intersection.add_actuated.xml"/>
    </input>

    <output>
        <queue-output value="/Users/shakibanaderian/Desktop/Multimodal SVCC project/CET593/Multiscale-Traffic-Control/SourceCodes/environment/simulation_data/single_intersection/queues_actuated_symmetric_pene_100.xml"/>
        <tripinfo-output value="/Users/shakibanaderian/Desktop/Multimodal SVCC project/CET593/Multiscale-Traffic-Control/SourceCodes/environment/simulation_data/single_intersection/tripinfo_actuated_symmetric_pene_100.xml"/>
    </output>

    <time>
        <begin value="0"/>
        <step-length value="0.5"/>
    </time>

    <processing>
        <waiting-time-memory value="1000"/>
    </processing>

    <report>
        <verbose value="true"/>
        <no-step-log value="true"/>
    </report>

    <traci_server>
        <remote-port value="56876"/>
    </traci_server>

    <gui_only>
        <start value="true"/>
    </gui_only>

</configuration>
-->

<detector xmlns:xsi="http://www.w3.org/2001/XMLSchema-instance" xsi:noNamespaceSchemaLocation="http://sumo.dlr.de/xsd/det_e1_file.xsd">
</detector>
l begin="0.00" end="85.00" id="1_actuated_program_D0.0" nVehContrib="9" flow="381.18" occupancy="4.69" speed="12.47" harmonicMeanSpeed="12.47" length="5.00" nVehEntered="10"/>
    <interval begin="0.00" end="85.00" id="1_actuated_program_D0.1" nVehContrib="0" flow="0.00" occupancy="0.00" speed="-1.00" harmonicMeanSpeed="-1.00" length="-1.00" nVehEntered="0"/>
    <interval begin="0.00" end="85.00" id="1_actuated_program_D0.2" nVehContrib="0" flow="0.00" occupancy="0.00" speed="-1.00" harmonicMeanSpeed="-1.00" length="-1.00" nVehEntered="0"/>
    <interval begin="0.00" end="85.00" id="1_actuated_program_D1.0" nVehContrib="1" flow="42.35" occupancy="0.50" speed="11.80" harmonicMeanSpeed="11.80" length="5.00" nVehEntered="1"/>
    <interval begin="0.00" end="85.00" id="1_actuated_program_D1.1" nVehContrib="5" flow="211.76" occupancy="2.72" speed="11.25" harmonicMeanSpeed="10.81" length="5.00" nVehEntered="5"/>
    <interval begin="0.00" end="85.00" id="1_actuated_program_D1.2" nVehContrib="0" flow="0.00" occupancy="0.00" speed="-1.00" harmonicMeanSpeed="-1.00" length="-1.00" nVehEntered="0"/>
    <interval begin="0.00" end="85.00" id="1_actuated_program_D2.0" nVehContrib="8" flow="338.82" occupancy="3.82" speed="12.33" harmonicMeanSpeed="12.32" length="5.00" nVehEntered="8"/>
    <interval begin="0.00" end="85.00" id="1_actuated_program_D2.1" nVehContrib="2" flow="84.71" occupancy="1.00" speed="11.82" harmonicMeanSpeed="11.82" length="5.00" nVehEntered="2"/>
    <interval begin="0.00" end="85.00" id="1_actuated_program_D2.2" nVehContrib="0" flow="0.00" occupancy="0.00" speed="-1.00" harmonicMeanSpeed="-1.00" length="-1.00" nVehEntered="0"/>
    <interval begin="0.00" end="85.00" id="1_actuated_program_D3.0" nVehContrib="5" flow="211.76" occupancy="3.17" speed="11.50" harmonicMeanSpeed="11.31" length="5.00" nVehEntered="6"/>
    <interval begin="0.00" end="85.00" id="1_actuated_program_D3.1" nVehContrib="2" flow="84.71" occupancy="1.23" speed="9.60" harmonicMeanSpeed="9.59" length="5.00" nVehEntered="2"/>
    <interval begin="0.00" end="85.00" id="1_actuated_program_D3.2" nVehContrib="1" flow="42.35" occupancy="0.51" speed="11.55" harmonicMeanSpeed="11.55" length="5.00" nVehEntered="1"/>
</detector>
