<?xml version="1.0" encoding="UTF-8"?>

<!-- generated on 2025-02-27 18:41:01 by Eclipse SUMO GUI Version 1.20.0
<configuration xmlns:xsi="http://www.w3.org/2001/XMLSchema-instance" xsi:noNamespaceSchemaLocation="http://sumo.dlr.de/xsd/sumoConfiguration.xsd">

    <input>
        <net-file value="/home/naderian/Desktop/Shakiba/CET593/environment/network_model/single_intersection_pedestrian_X.net.xml"/>
        <route-files value="/home/naderian/Desktop/Shakiba/CET593/environment/network_model/single_intersection.rou.xml"/>
        <additional-files value="/home/naderian/Desktop/Shakiba/CET593/environment/network_model/single_intersection.add_actuated.xml"/>
    </input>

    <output>
        <queue-output value="/home/naderian/Desktop/Shakiba/CET593/environment/simulation_data/single_intersection/queues_actuated_symmetric_pene_100.xml"/>
        <tripinfo-output value="/home/naderian/Desktop/Shakiba/CET593/environment/simulation_data/single_intersection/tripinfo_actuated_symmetric_pene_100.xml"/>
    </output>

    <time>
        <begin value="0"/>
        <step-length value="0.5"/>
    </time>

    <processing>
        <waiting-time-memory value="1000"/>
    </processing>

    <report>
        <verbose value="true"/>
        <no-step-log value="true"/>
    </report>

    <traci_server>
        <remote-port value="52469"/>
    </traci_server>

    <gui_only>
        <start value="true"/>
    </gui_only>

</configuration>
-->

<detector xmlns:xsi="http://www.w3.org/2001/XMLSchema-instance" xsi:noNamespaceSchemaLocation="http://sumo.dlr.de/xsd/det_e1_file.xsd">
    <interval begin="0.00" end="300.00" id="1_actuated_program_D0.0" nVehContrib="19" flow="228.00" occupancy="2.84" speed="11.87" harmonicMeanSpeed="11.67" length="5.00" nVehEntered="21"/>
    <interval begin="0.00" end="300.00" id="1_actuated_program_D0.1" nVehContrib="8" flow="96.00" occupancy="1.26" speed="10.88" harmonicMeanSpeed="10.60" length="5.00" nVehEntered="8"/>
    <interval begin="0.00" end="300.00" id="1_actuated_program_D0.2" nVehContrib="3" flow="36.00" occupancy="0.41" speed="12.24" harmonicMeanSpeed="12.24" length="5.00" nVehEntered="3"/>
    <interval begin="0.00" end="300.00" id="1_actuated_program_D1.0" nVehContrib="15" flow="180.00" occupancy="2.14" speed="11.74" harmonicMeanSpeed="11.67" length="5.00" nVehEntered="15"/>
    <interval begin="0.00" end="300.00" id="1_actuated_program_D1.1" nVehContrib="6" flow="72.00" occupancy="0.84" speed="11.99" harmonicMeanSpeed="11.96" length="5.00" nVehEntered="6"/>
    <interval begin="0.00" end="300.00" id="1_actuated_program_D1.2" nVehContrib="7" flow="84.00" occupancy="0.96" speed="12.17" harmonicMeanSpeed="12.16" length="5.00" nVehEntered="7"/>
    <interval begin="0.00" end="300.00" id="1_actuated_program_D2.0" nVehContrib="17" flow="204.00" occupancy="2.55" speed="11.44" harmonicMeanSpeed="11.13" length="5.00" nVehEntered="17"/>
    <interval begin="0.00" end="300.00" id="1_actuated_program_D2.1" nVehContrib="6" flow="72.00" occupancy="0.87" speed="11.67" harmonicMeanSpeed="11.50" length="5.00" nVehEntered="6"/>
    <interval begin="0.00" end="300.00" id="1_actuated_program_D2.2" nVehContrib="4" flow="48.00" occupancy="0.54" speed="12.44" harmonicMeanSpeed="12.44" length="5.00" nVehEntered="4"/>
    <interval begin="0.00" end="300.00" id="1_actuated_program_D3.0" nVehContrib="11" flow="132.00" occupancy="1.52" speed="12.10" harmonicMeanSpeed="12.09" length="5.00" nVehEntered="11"/>
    <interval begin="0.00" end="300.00" id="1_actuated_program_D3.1" nVehContrib="11" flow="132.00" occupancy="1.79" speed="10.91" harmonicMeanSpeed="10.23" length="5.00" nVehEntered="11"/>
    <interval begin="0.00" end="300.00" id="1_actuated_program_D3.2" nVehContrib="2" flow="24.00" occupancy="0.27" speed="12.21" harmonicMeanSpeed="12.17" length="5.00" nVehEntered="2"/>
    <interval begin="300.00" end="600.00" id="1_actuated_program_D0.0" nVehContrib="16" flow="192.00" occupancy="7.45" speed="10.65" harmonicMeanSpeed="3.58" length="5.00" nVehEntered="15"/>
    <interval begin="300.00" end="600.00" id="1_actuated_program_D0.1" nVehContrib="18" flow="216.00" occupancy="2.83" speed="11.24" harmonicMeanSpeed="10.59" length="5.00" nVehEntered="18"/>
    <interval begin="300.00" end="600.00" id="1_actuated_program_D0.2" nVehContrib="7" flow="84.00" occupancy="1.00" speed="11.75" harmonicMeanSpeed="11.72" length="5.00" nVehEntered="7"/>
    <interval begin="300.00" end="600.00" id="1_actuated_program_D1.0" nVehContrib="14" flow="168.00" occupancy="3.39" speed="10.07" harmonicMeanSpeed="6.91" length="5.00" nVehEntered="15"/>
    <interval begin="300.00" end="600.00" id="1_actuated_program_D1.1" nVehContrib="12" flow="144.00" occupancy="9.80" speed="8.41" harmonicMeanSpeed="2.04" length="5.00" nVehEntered="13"/>
    <interval begin="300.00" end="600.00" id="1_actuated_program_D1.2" nVehContrib="3" flow="36.00" occupancy="0.39" speed="12.69" harmonicMeanSpeed="12.69" length="5.00" nVehEntered="3"/>
    <interval begin="300.00" end="600.00" id="1_actuated_program_D2.0" nVehContrib="17" flow="204.00" occupancy="2.37" speed="12.02" harmonicMeanSpeed="11.97" length="5.00" nVehEntered="17"/>
    <interval begin="300.00" end="600.00" id="1_actuated_program_D2.1" nVehContrib="14" flow="168.00" occupancy="3.08" speed="9.15" harmonicMeanSpeed="8.43" length="5.00" nVehEntered="15"/>
    <interval begin="300.00" end="600.00" id="1_actuated_program_D2.2" nVehContrib="10" flow="120.00" occupancy="16.29" speed="9.02" harmonicMeanSpeed="1.02" length="5.00" nVehEntered="10"/>
    <interval begin="300.00" end="600.00" id="1_actuated_program_D3.0" nVehContrib="23" flow="276.00" occupancy="4.06" speed="10.63" harmonicMeanSpeed="9.44" length="5.00" nVehEntered="23"/>
    <interval begin="300.00" end="600.00" id="1_actuated_program_D3.1" nVehContrib="12" flow="144.00" occupancy="4.92" speed="9.40" harmonicMeanSpeed="4.07" length="5.00" nVehEntered="12"/>
    <interval begin="300.00" end="600.00" id="1_actuated_program_D3.2" nVehContrib="8" flow="96.00" occupancy="1.10" speed="12.10" harmonicMeanSpeed="12.07" length="5.00" nVehEntered="8"/>
    <interval begin="600.00" end="819.00" id="1_actuated_program_D0.0" nVehContrib="0" flow="0.00" occupancy="0.00" speed="-1.00" harmonicMeanSpeed="-1.00" length="-1.00" nVehEntered="0"/>
    <interval begin="600.00" end="819.00" id="1_actuated_program_D0.1" nVehContrib="0" flow="0.00" occupancy="0.00" speed="-1.00" harmonicMeanSpeed="-1.00" length="-1.00" nVehEntered="0"/>
    <interval begin="600.00" end="819.00" id="1_actuated_program_D0.2" nVehContrib="2" flow="32.88" occupancy="0.66" speed="7.26" harmonicMeanSpeed="6.88" length="5.00" nVehEntered="2"/>
    <interval begin="600.00" end="819.00" id="1_actuated_program_D1.0" nVehContrib="1" flow="16.44" occupancy="0.18" speed="12.39" harmonicMeanSpeed="12.39" length="5.00" nVehEntered="1"/>
    <interval begin="600.00" end="819.00" id="1_actuated_program_D1.1" nVehContrib="0" flow="0.00" occupancy="0.00" speed="-1.00" harmonicMeanSpeed="-1.00" length="-1.00" nVehEntered="0"/>
    <interval begin="600.00" end="819.00" id="1_actuated_program_D1.2" nVehContrib="2" flow="32.88" occupancy="0.37" speed="12.50" harmonicMeanSpeed="12.49" length="5.00" nVehEntered="2"/>
    <interval begin="600.00" end="819.00" id="1_actuated_program_D2.0" nVehContrib="1" flow="16.44" occupancy="0.55" speed="4.19" harmonicMeanSpeed="4.19" length="5.00" nVehEntered="1"/>
    <interval begin="600.00" end="819.00" id="1_actuated_program_D2.1" nVehContrib="2" flow="32.88" occupancy="4.31" speed="1.95" harmonicMeanSpeed="1.34" length="5.00" nVehEntered="2"/>
    <interval begin="600.00" end="819.00" id="1_actuated_program_D2.2" nVehContrib="0" flow="0.00" occupancy="0.00" speed="-1.00" harmonicMeanSpeed="-1.00" length="-1.00" nVehEntered="0"/>
    <interval begin="600.00" end="819.00" id="1_actuated_program_D3.0" nVehContrib="1" flow="16.44" occupancy="0.33" speed="9.17" harmonicMeanSpeed="9.17" length="5.00" nVehEntered="2"/>
    <interval begin="600.00" end="819.00" id="1_actuated_program_D3.1" nVehContrib="2" flow="32.88" occupancy="0.55" speed="9.03" harmonicMeanSpeed="8.34" length="5.00" nVehEntered="2"/>
    <interval begin="600.00" end="819.00" id="1_actuated_program_D3.2" nVehContrib="0" flow="0.00" occupancy="0.00" speed="-1.00" harmonicMeanSpeed="-1.00" length="-1.00" nVehEntered="0"/>
</detector>
