<?xml version="1.0" encoding="UTF-8"?>

<!-- generated on 2025-03-07 20:25:54 by Eclipse SUMO GUI Version 1.20.0
<configuration xmlns:xsi="http://www.w3.org/2001/XMLSchema-instance" xsi:noNamespaceSchemaLocation="http://sumo.dlr.de/xsd/sumoConfiguration.xsd">

    <input>
        <net-file value="/home/naderian/Desktop/Shakiba/CET593/environment/network_model/single_intersection_pedestrian_X.net.xml"/>
        <route-files value="/home/naderian/Desktop/Shakiba/CET593/environment/network_model/single_intersection.rou.xml"/>
        <additional-files value="/home/naderian/Desktop/Shakiba/CET593/environment/network_model/single_intersection.add_actuated.xml"/>
    </input>

    <output>
        <queue-output value="/home/naderian/Desktop/Shakiba/CET593/environment/simulation_data/single_intersection/queues_actuated_symmetric_pene_100.xml"/>
        <tripinfo-output value="/home/naderian/Desktop/Shakiba/CET593/environment/simulation_data/single_intersection/tripinfo_actuated_symmetric_pene_100.xml"/>
    </output>

    <time>
        <begin value="0"/>
        <step-length value="0.5"/>
    </time>

    <processing>
        <waiting-time-memory value="1000"/>
    </processing>

    <report>
        <verbose value="true"/>
        <no-step-log value="true"/>
    </report>

    <traci_server>
        <remote-port value="58689"/>
    </traci_server>

    <gui_only>
        <start value="true"/>
    </gui_only>

</configuration>
-->

<tripinfos xmlns:xsi="http://www.w3.org/2001/XMLSchema-instance" xsi:noNamespaceSchemaLocation="http://sumo.dlr.de/xsd/tripinfo_file.xsd">
</tripinfos>
 id="SN_0" depart="0.00" departLane="3_1_2" departPos="5.10" departSpeed="0.00" departDelay="0.00" arrival="35.50" arrivalLane="1_5_1" arrivalPos="186.40" arrivalSpeed="11.82" duration="35.50" routeLength="395.15" waitingTime="0.00" waitingCount="0" stopTime="0.00" timeLoss="4.99" rerouteNo="0" devices="tripinfo_SN_0" vType="cars" speedFactor="0.97" vaporized=""/>
    <tripinfo id="NS_1" depart="1.00" departLane="5_1_2" departPos="5.10" departSpeed="0.00" departDelay="0.00" arrival="38.00" arrivalLane="1_3_1" arrivalPos="186.40" arrivalSpeed="12.65" duration="37.00" routeLength="395.15" waitingTime="0.00" waitingCount="0" stopTime="0.00" timeLoss="6.30" rerouteNo="0" devices="tripinfo_NS_1" vType="cars" speedFactor="1.11" vaporized=""/>
    <tripinfo id="SN_2" depart="5.00" departLane="3_1_2" departPos="5.10" departSpeed="0.00" departDelay="0.00" arrival="40.00" arrivalLane="1_5_1" arrivalPos="186.40" arrivalSpeed="11.68" duration="35.00" routeLength="395.15" waitingTime="0.00" waitingCount="0" stopTime="0.00" timeLoss="4.48" rerouteNo="0" devices="tripinfo_SN_2" vType="cars" speedFactor="0.86" vaporized=""/>
    <tripinfo id="NS_5" depart="22.00" departLane="5_1_2" departPos="5.10" departSpeed="0.00" departDelay="0.00" arrival="59.00" arrivalLane="1_3_1" arrivalPos="186.40" arrivalSpeed="11.64" duration="37.00" routeLength="395.15" waitingTime="0.00" waitingCount="0" stopTime="0.00" timeLoss="6.24" rerouteNo="0" devices="tripinfo_NS_5" vType="cars" speedFactor="1.01" vaporized=""/>
    <tripinfo id="SW_8" depart="40.00" departLane="3_1_3" departPos="5.10" departSpeed="0.00" departDelay="0.00" arrival="79.00" arrivalLane="1_2_2" arrivalPos="186.40" arrivalSpeed="11.98" duration="39.00" routeLength="392.22" waitingTime="0.00" waitingCount="0" stopTime="0.00" timeLoss="7.98" rerouteNo="0" devices="tripinfo_SW_8" vType="cars" speedFactor="0.85" vaporized=""/>
    <tripinfo id="EW_0" depart="19.00" departLane="4_1_2" departPos="5.10" departSpeed="0.00" departDelay="0.00" arrival="86.50" arrivalLane="1_2_1" arrivalPos="186.40" arrivalSpeed="12.28" duration="67.50" routeLength="395.15" waitingTime="28.00" waitingCount="1" stopTime="0.00" timeLoss="36.98" rerouteNo="0" devices="tripinfo_EW_0" vType="cars" speedFactor="1.05" vaporized=""/>
    <tripinfo id="WE_1" depart="10.00" departLane="2_1_2" departPos="5.10" departSpeed="0.00" departDelay="0.00" arrival="87.00" arrivalLane="1_4_2" arrivalPos="186.40" arrivalSpeed="12.38" duration="77.00" routeLength="395.15" waitingTime="37.50" waitingCount="1" stopTime="0.00" timeLoss="46.56" rerouteNo="0" devices="tripinfo_WE_1" vType="cars" speedFactor="1.06" vaporized=""/>
    <tripinfo id="EW_1" depart="22.00" departLane="4_1_2" departPos="5.10" departSpeed="0.00" departDelay="1.00" arrival="87.50" arrivalLane="1_2_2" arrivalPos="186.40" arrivalSpeed="12.97" duration="65.50" routeLength="395.15" waitingTime="24.00" waitingCount="1" stopTime="0.00" timeLoss="34.73" rerouteNo="0" devices="tripinfo_EW_1" vType="cars" speedFactor="1.01" vaporized=""/>
    <tripinfo id="WE_0" depart="1.00" departLane="2_1_2" departPos="5.10" departSpeed="0.00" departDelay="0.00" arrival="88.00" arrivalLane="1_4_1" arrivalPos="186.40" arrivalSpeed="12.84" duration="87.00" routeLength="395.15" waitingTime="45.50" waitingCount="1" stopTime="0.00" timeLoss="56.32" rerouteNo="0" devices="tripinfo_WE_0" vType="cars" speedFactor="0.91" vaporized=""/>
    <tripinfo id="WS_3" depart="7.00" departLane="2_1_1" departPos="5.10" departSpeed="0.00" departDelay="0.00" arrival="88.50" arrivalLane="1_3_1" arrivalPos="186.40" arrivalSpeed="12.55" duration="81.50" routeLength="379.43" waitingTime="37.50" waitingCount="1" stopTime="0.00" timeLoss="51.57" rerouteNo="0" devices="tripinfo_WS_3" vType="cars" speedFactor="0.95" vaporized=""/>
    <tripinfo id="WE_2" depart="12.50" departLane="2_1_2" departPos="5.10" departSpeed="0.00" departDelay="0.50" arrival="89.00" arrivalLane="1_4_2" arrivalPos="186.40" arrivalSpeed="12.48" duration="76.50" routeLength="395.15" waitingTime="32.50" waitingCount="1" stopTime="0.00" timeLoss="45.88" rerouteNo="0" devices="tripinfo_WE_2" vType="cars" speedFactor="0.94" vaporized=""/>
    <tripinfo id="EW_2" depart="46.00" departLane="4_1_2" departPos="5.10" departSpeed="0.00" departDelay="0.00" arrival="90.00" arrivalLane="1_2_1" arrivalPos="186.40" arrivalSpeed="11.73" duration="44.00" routeLength="395.15" waitingTime="0.00" waitingCount="0" stopTime="0.00" timeLoss="13.18" rerouteNo="0" devices="tripinfo_EW_2" vType="cars" speedFactor="1.05" vaporized=""/>
    <tripinfo id="WE_3" depart="43.00" departLane="2_1_2" departPos="5.10" departSpeed="0.00" departDelay="0.00" arrival="92.00" arrivalLane="1_4_1" arrivalPos="186.40" arrivalSpeed="11.50" duration="49.00" routeLength="395.15" waitingTime="3.50" waitingCount="1" stopTime="0.00" timeLoss="18.17" rerouteNo="0" devices="tripinfo_WE_3" vType="cars" speedFactor="1.05" vaporized=""/>
    <tripinfo id="WE_4" depart="67.00" departLane="2_1_2" departPos="5.10" departSpeed="0.00" departDelay="0.00" arrival="101.50" arrivalLane="1_4_1" arrivalPos="186.40" arrivalSpeed="11.51" duration="34.50" routeLength="395.15" waitingTime="0.00" waitingCount="0" stopTime="0.00" timeLoss="3.90" rerouteNo="0" devices="tripinfo_WE_4" vType="cars" speedFactor="0.96" vaporized=""/>
    <tripinfo id="EW_3" depart="68.00" departLane="4_1_2" departPos="5.10" departSpeed="0.00" departDelay="0.00" arrival="104.50" arrivalLane="1_2_1" arrivalPos="186.40" arrivalSpeed="12.24" duration="36.50" routeLength="395.15" waitingTime="0.00" waitingCount="0" stopTime="0.00" timeLoss="5.83" rerouteNo="0" devices="tripinfo_EW_3" vType="cars" speedFactor="0.98" vaporized=""/>
    <tripinfo id="ES_4" depart="14.00" departLane="4_1_3" departPos="5.10" departSpeed="0.00" departDelay="0.00" arrival="120.50" arrivalLane="1_3_2" arrivalPos="186.40" arrivalSpeed="11.79" duration="106.50" routeLength="392.22" waitingTime="64.50" waitingCount="1" stopTime="0.00" timeLoss="75.68" rerouteNo="0" devices="tripinfo_ES_4" vType="cars" speedFactor="0.97" vaporized=""/>
    <tripinfo id="NW_7" depart="37.00" departLane="5_1_1" departPos="5.10" departSpeed="0.00" departDelay="0.00" arrival="121.00" arrivalLane="1_2_1" arrivalPos="186.40" arrivalSpeed="12.94" duration="84.00" routeLength="379.43" waitingTime="45.00" waitingCount="1" stopTime="0.00" timeLoss="53.84" rerouteNo="0" devices="tripinfo_NW_7" vType="cars" speedFactor="1.13" vaporized=""/>
    <tripinfo id="WN_13" depart="85.00" departLane="2_1_3" departPos="5.10" departSpeed="0.00" departDelay="0.00" arrival="122.50" arrivalLane="1_5_2" arrivalPos="186.40" arrivalSpeed="12.38" duration="37.50" routeLength="392.22" waitingTime="0.00" waitingCount="0" stopTime="0.00" timeLoss="6.54" rerouteNo="0" devices="tripinfo_WN_13" vType="cars" speedFactor="0.99" vaporized=""/>
    <tripinfo id="ES_6" depart="31.00" departLane="4_1_3" departPos="5.10" departSpeed="0.00" departDelay="0.00" arrival="123.00" arrivalLane="1_3_2" arrivalPos="186.40" arrivalSpeed="12.96" duration="92.00" routeLength="392.22" waitingTime="45.00" waitingCount="1" stopTime="0.00" timeLoss="61.25" rerouteNo="0" devices="tripinfo_ES_6" vType="cars" speedFactor="1.07" vaporized=""/>
    <tripinfo id="NW_9" depart="41.00" departLane="5_1_1" departPos="5.10" departSpeed="0.00" departDelay="0.00" arrival="123.50" arrivalLane="1_2_1" arrivalPos="186.40" arrivalSpeed="11.58" duration="82.50" routeLength="379.43" waitingTime="40.00" waitingCount="1" stopTime="0.00" timeLoss="52.43" rerouteNo="0" devices="tripinfo_NW_9" vType="cars" speedFactor="0.91" vaporized=""/>
    <tripinfo id="SN_10" depart="48.00" departLane="3_1_2" departPos="5.10" departSpeed="0.00" departDelay="0.00" arrival="136.00" arrivalLane="1_5_1" arrivalPos="186.40" arrivalSpeed="11.72" duration="88.00" routeLength="395.15" waitingTime="47.50" waitingCount="1" stopTime="0.00" timeLoss="57.59" rerouteNo="0" devices="tripinfo_SN_10" vType="cars" speedFactor="1.02" vaporized=""/>
    <tripinfo id="NS_12" depart="80.00" departLane="5_1_2" departPos="5.10" departSpeed="0.00" departDelay="0.00" arrival="136.00" arrivalLane="1_3_1" arrivalPos="186.40" arrivalSpeed="12.52" duration="56.00" routeLength="395.15" waitingTime="15.00" waitingCount="1" stopTime="0.00" timeLoss="25.52" rerouteNo="0" devices="tripinfo_NS_12" vType="cars" speedFactor="1.07" vaporized=""/>
    <tripinfo id="SN_11" depart="70.00" departLane="3_1_2" departPos="5.10" departSpeed="0.00" departDelay="0.00" arrival="137.50" arrivalLane="1_5_2" arrivalPos="186.40" arrivalSpeed="12.40" duration="67.50" routeLength="395.15" waitingTime="26.50" waitingCount="1" stopTime="0.00" timeLoss="36.97" rerouteNo="0" devices="tripinfo_SN_11" vType="cars" speedFactor="1.02" vaporized=""/>
    <tripinfo id="NS_15" depart="92.00" departLane="5_1_2" departPos="5.10" departSpeed="0.00" departDelay="0.00" arrival="137.50" arrivalLane="1_3_2" arrivalPos="186.40" arrivalSpeed="11.74" duration="45.50" routeLength="395.15" waitingTime="2.00" waitingCount="1" stopTime="0.00" timeLoss="14.77" rerouteNo="0" devices="tripinfo_NS_15" vType="cars" speedFactor="1.01" vaporized=""/>
    <tripinfo id="NS_18" depart="99.00" departLane="5_1_2" departPos="5.10" departSpeed="0.00" departDelay="0.00" arrival="138.00" arrivalLane="1_3_1" arrivalPos="186.40" arrivalSpeed="12.94" duration="39.00" routeLength="395.15" waitingTime="0.00" waitingCount="0" stopTime="0.00" timeLoss="8.38" rerouteNo="0" devices="tripinfo_NS_18" vType="cars" speedFactor="0.84" vaporized=""/>
    <tripinfo id="SN_16" depart="93.00" departLane="3_1_2" departPos="5.10" departSpeed="0.00" departDelay="0.00" arrival="139.00" arrivalLane="1_5_1" arrivalPos="186.40" arrivalSpeed="12.23" duration="46.00" routeLength="395.15" waitingTime="0.00" waitingCount="0" stopTime="0.00" timeLoss="15.31" rerouteNo="0" devices="tripinfo_SN_16" vType="cars" speedFactor="0.91" vaporized=""/>
    <tripinfo id="SN_14" depart="90.00" departLane="3_1_2" departPos="5.10" departSpeed="0.00" departDelay="0.00" arrival="139.50" arrivalLane="1_5_2" arrivalPos="186.40" arrivalSpeed="11.85" duration="49.50" routeLength="395.15" waitingTime="4.00" waitingCount="1" stopTime="0.00" timeLoss="19.00" rerouteNo="0" devices="tripinfo_SN_14" vType="cars" speedFactor="1.05" vaporized=""/>
    <tripinfo id="SN_20" depart="109.00" departLane="3_1_2" departPos="5.10" departSpeed="0.00" departDelay="0.00" arrival="145.00" arrivalLane="1_5_2" arrivalPos="186.40" arrivalSpeed="12.40" duration="36.00" routeLength="395.15" waitingTime="0.00" waitingCount="0" stopTime="0.00" timeLoss="5.45" rerouteNo="0" devices="tripinfo_SN_20" vType="cars" speedFactor="0.89" vaporized=""/>
    <tripinfo id="SE_19" depart="100.00" departLane="3_1_1" departPos="5.10" departSpeed="0.00" departDelay="0.00" arrival="152.00" arrivalLane="1_4_1" arrivalPos="186.40" arrivalSpeed="12.10" duration="52.00" routeLength="379.42" waitingTime="9.00" waitingCount="1" stopTime="0.00" timeLoss="21.44" rerouteNo="0" devices="tripinfo_SE_19" vType="cars" speedFactor="0.92" vaporized=""/>
    <tripinfo id="NS_24" depart="125.00" departLane="5_1_2" departPos="5.10" departSpeed="0.00" departDelay="0.00" arrival="161.00" arrivalLane="1_3_1" arrivalPos="186.40" arrivalSpeed="12.71" duration="36.00" routeLength="395.15" waitingTime="0.00" waitingCount="0" stopTime="0.00" timeLoss="5.43" rerouteNo="0" devices="tripinfo_NS_24" vType="cars" speedFactor="1.22" vaporized=""/>
    <tripinfo id="SN_25" depart="126.00" departLane="3_1_2" departPos="5.10" departSpeed="0.00" departDelay="0.00" arrival="162.00" arrivalLane="1_5_1" arrivalPos="186.40" arrivalSpeed="11.60" duration="36.00" routeLength="395.15" waitingTime="0.00" waitingCount="0" stopTime="0.00" timeLoss="5.20" rerouteNo="0" devices="tripinfo_SN_25" vType="cars" speedFactor="0.91" vaporized=""/>
    <tripinfo id="EN_21" depart="111.00" departLane="4_1_1" departPos="5.10" departSpeed="0.00" departDelay="0.00" arrival="172.50" arrivalLane="1_5_1" arrivalPos="186.40" arrivalSpeed="12.55" duration="61.50" routeLength="379.42" waitingTime="22.00" waitingCount="1" stopTime="0.00" timeLoss="31.33" rerouteNo="0" devices="tripinfo_EN_21" vType="cars" speedFactor="1.00" vaporized=""/>
    <tripinfo id="SW_17" depart="93.00" departLane="3_1_3" departPos="5.10" departSpeed="0.00" departDelay="0.00" arrival="173.00" arrivalLane="1_2_2" arrivalPos="186.40" arrivalSpeed="12.03" duration="80.00" routeLength="392.22" waitingTime="39.50" waitingCount="1" stopTime="0.00" timeLoss="48.56" rerouteNo="0" devices="tripinfo_SW_17" vType="cars" speedFactor="0.83" vaporized=""/>
    <personinfo id="person_EW_n.0" depart="20.64" type="DEFAULT_PEDTYPE" speedFactor="1.09" duration="154.00" waitingTime="0.00" timeLoss="8.06" traveltime="154.00">
        <walk depart="21.00" departPos="100.00" arrival="175.00" arrivalPos="93.20" duration="154.00" routeLength="221.32" timeLoss="8.06" maxSpeed="1.52"/>
    </personinfo>
    <tripinfo id="SW_28" depart="137.50" departLane="3_1_3" departPos="5.10" departSpeed="0.00" departDelay="1.50" arrival="176.50" arrivalLane="1_2_2" arrivalPos="186.40" arrivalSpeed="11.83" duration="39.00" routeLength="392.22" waitingTime="0.00" waitingCount="0" stopTime="0.00" timeLoss="7.77" rerouteNo="0" devices="tripinfo_SW_28" vType="cars" speedFactor="0.88" vaporized=""/>
    <personinfo id="person_WE_s.0" depart="1.92" type="DEFAULT_PEDTYPE" speedFactor="0.98" duration="175.50" waitingTime="0.00" timeLoss="12.21" traveltime="175.50">
        <walk depart="2.00" departPos="100.00" arrival="177.50" arrivalPos="93.20" duration="175.50" routeLength="221.17" timeLoss="12.21" maxSpeed="1.35"/>
    </personinfo>
    <tripinfo id="WE_6" depart="88.50" departLane="2_1_2" departPos="5.10" departSpeed="0.00" departDelay="1.50" arrival="189.00" arrivalLane="1_4_1" arrivalPos="186.40" arrivalSpeed="12.04" duration="100.50" routeLength="395.15" waitingTime="60.00" waitingCount="1" stopTime="0.00" timeLoss="69.80" rerouteNo="0" devices="tripinfo_WE_6" vType="cars" speedFactor="0.93" vaporized=""/>
    <tripinfo id="EW_4" depart="123.00" departLane="4_1_2" departPos="5.10" departSpeed="0.00" departDelay="0.00" arrival="189.00" arrivalLane="1_2_1" arrivalPos="186.40" arrivalSpeed="12.66" duration="66.00" routeLength="395.15" waitingTime="25.50" waitingCount="1" stopTime="0.00" timeLoss="35.43" rerouteNo="0" devices="tripinfo_EW_4" vType="cars" speedFactor="1.11" vaporized=""/>
    <tripinfo id="EW_5" depart="125.50" departLane="4_1_2" departPos="5.10" departSpeed="0.00" departDelay="0.50" arrival="189.50" arrivalLane="1_2_1" arrivalPos="186.40" arrivalSpeed="12.91" duration="64.00" routeLength="395.15" waitingTime="16.50" waitingCount="2" stopTime="0.00" timeLoss="33.29" rerouteNo="0" devices="tripinfo_EW_5" vType="cars" speedFactor="1.09" vaporized=""/>
    <tripinfo id="EW_6" depart="137.00" departLane="4_1_2" departPos="5.10" departSpeed="0.00" departDelay="0.00" arrival="191.00" arrivalLane="1_2_1" arrivalPos="186.40" arrivalSpeed="12.99" duration="54.00" routeLength="395.15" waitingTime="6.50" waitingCount="1" stopTime="0.00" timeLoss="23.60" rerouteNo="0" devices="tripinfo_EW_6" vType="cars" speedFactor="1.08" vaporized=""/>
    <tripinfo id="WE_5" depart="86.00" departLane="2_1_2" departPos="5.10" departSpeed="0.00" departDelay="0.00" arrival="191.50" arrivalLane="1_4_1" arrivalPos="186.40" arrivalSpeed="11.73" duration="105.50" routeLength="395.15" waitingTime="63.00" waitingCount="1" stopTime="0.00" timeLoss="75.01" rerouteNo="0" devices="tripinfo_WE_5" vType="cars" speedFactor="0.99" vaporized=""/>
    <tripinfo id="WE_7" depart="125.00" departLane="2_1_2" departPos="5.10" departSpeed="0.00" departDelay="0.00" arrival="192.50" arrivalLane="1_4_2" arrivalPos="186.40" arrivalSpeed="12.46" duration="67.50" routeLength="395.15" waitingTime="22.00" waitingCount="1" stopTime="0.00" timeLoss="36.76" rerouteNo="0" devices="tripinfo_WE_7" vType="cars" speedFactor="1.02" vaporized=""/>
    <tripinfo id="WE_8" depart="134.00" departLane="2_1_2" departPos="5.10" departSpeed="0.00" departDelay="0.00" arrival="194.50" arrivalLane="1_4_2" arrivalPos="186.40" arrivalSpeed="12.42" duration="60.50" routeLength="395.15" waitingTime="14.00" waitingCount="1" stopTime="0.00" timeLoss="29.89" rerouteNo="0" devices="tripinfo_WE_8" vType="cars" speedFactor="1.01" vaporized=""/>
    <personinfo id="person_NS_w.1" depart="10.87" type="DEFAULT_PEDTYPE" speedFactor="1.12" duration="188.50" waitingTime="0.00" timeLoss="46.18" traveltime="188.50">
        <walk depart="11.00" departPos="100.00" arrival="199.50" arrivalPos="93.20" duration="188.50" routeLength="221.25" timeLoss="46.18" maxSpeed="1.55"/>
    </personinfo>
    <personinfo id="person_NE_diag.0" depart="4.87" type="DEFAULT_PEDTYPE" speedFactor="0.99" duration="201.50" waitingTime="0.00" timeLoss="38.63" traveltime="201.50">
        <walk depart="5.00" departPos="100.00" arrival="206.50" arrivalPos="93.20" duration="201.50" routeLength="223.30" timeLoss="38.63" maxSpeed="1.37"/>
    </personinfo>
    <personinfo id="person_NS_w.0" depart="3.48" type="DEFAULT_PEDTYPE" speedFactor="1.00" duration="206.00" waitingTime="0.00" timeLoss="46.22" traveltime="206.00">
        <walk depart="3.50" departPos="100.00" arrival="209.50" arrivalPos="93.20" duration="206.00" routeLength="221.25" timeLoss="46.22" maxSpeed="1.38"/>
    </personinfo>
    <personinfo id="person_NS_w.2" depart="10.90" type="DEFAULT_PEDTYPE" speedFactor="1.00" duration="199.00" waitingTime="0.00" timeLoss="39.37" traveltime="199.00">
        <walk depart="11.00" departPos="100.00" arrival="210.00" arrivalPos="93.20" duration="199.00" routeLength="221.25" timeLoss="39.37" maxSpeed="1.39"/>
    </personinfo>
    <personinfo id="person_NS_w.3" depart="12.93" type="DEFAULT_PEDTYPE" speedFactor="0.99" duration="197.50" waitingTime="0.00" timeLoss="36.11" traveltime="197.50">
        <walk depart="13.00" departPos="100.00" arrival="210.50" arrivalPos="93.20" duration="197.50" routeLength="221.25" timeLoss="36.11" maxSpeed="1.37"/>
    </personinfo>
    <tripinfo id="EN_29" depart="137.00" departLane="4_1_1" departPos="5.10" departSpeed="0.00" departDelay="0.00" arrival="212.00" arrivalLane="1_5_1" arrivalPos="186.40" arrivalSpeed="12.06" duration="75.00" routeLength="379.42" waitingTime="27.00" waitingCount="2" stopTime="0.00" timeLoss="44.84" rerouteNo="0" devices="tripinfo_EN_29" vType="cars" speedFactor="1.15" vaporized=""/>
    <tripinfo id="WE_9" depart="175.00" departLane="2_1_2" departPos="5.10" departSpeed="0.00" departDelay="0.00" arrival="212.00" arrivalLane="1_4_2" arrivalPos="186.40" arrivalSpeed="12.37" duration="37.00" routeLength="395.15" waitingTime="0.00" waitingCount="0" stopTime="0.00" timeLoss="6.18" rerouteNo="0" devices="tripinfo_WE_9" vType="cars" speedFactor="1.08" vaporized=""/>
    <tripinfo id="EW_7" depart="175.00" departLane="4_1_2" departPos="5.10" departSpeed="0.00" departDelay="0.00" arrival="212.00" arrivalLane="1_2_2" arrivalPos="186.40" arrivalSpeed="12.69" duration="37.00" routeLength="395.15" waitingTime="0.00" waitingCount="0" stopTime="0.00" timeLoss="6.52" rerouteNo="0" devices="tripinfo_EW_7" vType="cars" speedFactor="1.37" vaporized=""/>
    <personinfo id="person_SN_e.0" depart="16.32" type="DEFAULT_PEDTYPE" speedFactor="0.96" duration="196.50" waitingTime="0.00" timeLoss="30.83" traveltime="196.50">
        <walk depart="16.50" departPos="100.00" arrival="213.00" arrivalPos="93.20" duration="196.50" routeLength="221.24" timeLoss="30.83" maxSpeed="1.34"/>
    </personinfo>
    <personinfo id="person_NS_w.4" depart="22.10" type="DEFAULT_PEDTYPE" speedFactor="0.96" duration="191.50" waitingTime="0.00" timeLoss="25.51" traveltime="191.50">
        <walk depart="22.50" departPos="100.00" arrival="214.00" arrivalPos="93.20" duration="191.50" routeLength="221.25" timeLoss="25.51" maxSpeed="1.33"/>
    </personinfo>
    <tripinfo id="WE_10" depart="178.00" departLane="2_1_2" departPos="5.10" departSpeed="0.00" departDelay="1.00" arrival="214.50" arrivalLane="1_4_2" arrivalPos="186.40" arrivalSpeed="12.11" duration="36.50" routeLength="395.15" waitingTime="0.00" waitingCount="0" stopTime="0.00" timeLoss="6.08" rerouteNo="0" devices="tripinfo_WE_10" vType="cars" speedFactor="1.14" vaporized=""/>
    <personinfo id="person_NS_w.5" depart="28.81" type="DEFAULT_PEDTYPE" speedFactor="0.91" duration="190.00" waitingTime="0.00" timeLoss="14.33" traveltime="190.00">
        <walk depart="29.00" departPos="100.00" arrival="219.00" arrivalPos="93.20" duration="190.00" routeLength="221.25" timeLoss="14.33" maxSpeed="1.26"/>
    </personinfo>
    <personinfo id="person_NS_w.6" depart="35.57" type="DEFAULT_PEDTYPE" speedFactor="0.95" duration="184.00" waitingTime="0.00" timeLoss="15.93" traveltime="184.00">
        <walk depart="36.00" departPos="100.00" arrival="220.00" arrivalPos="93.20" duration="184.00" routeLength="221.25" timeLoss="15.93" maxSpeed="1.32"/>
    </personinfo>
    <personinfo id="person_NS_w.7" depart="50.97" type="DEFAULT_PEDTYPE" speedFactor="1.02" duration="169.50" waitingTime="0.00" timeLoss="13.65" traveltime="169.50">
        <walk depart="51.00" departPos="100.00" arrival="220.50" arrivalPos="93.20" duration="169.50" routeLength="221.25" timeLoss="13.65" maxSpeed="1.42"/>
    </personinfo>
    <tripinfo id="WS_23" depart="125.00" departLane="2_1_1" departPos="5.10" departSpeed="0.00" departDelay="0.00" arrival="220.50" arrivalLane="1_3_1" arrivalPos="186.40" arrivalSpeed="11.75" duration="95.50" routeLength="379.43" waitingTime="47.50" waitingCount="2" stopTime="0.00" timeLoss="65.51" rerouteNo="0" devices="tripinfo_WS_23" vType="cars" speedFactor="1.02" vaporized=""/>
    <personinfo id="person_SN_e.1" depart="49.21" type="DEFAULT_PEDTYPE" speedFactor="0.96" duration="175.50" waitingTime="0.00" timeLoss="9.52" traveltime="175.50">
        <walk depart="49.50" departPos="100.00" arrival="225.00" arrivalPos="93.20" duration="175.50" routeLength="221.24" timeLoss="9.52" maxSpeed="1.33"/>
    </personinfo>
    <tripinfo id="ES_22" depart="119.00" departLane="4_1_3" departPos="5.10" departSpeed="0.00" departDelay="0.00" arrival="225.00" arrivalLane="1_3_2" arrivalPos="186.40" arrivalSpeed="12.28" duration="106.00" routeLength="392.22" waitingTime="65.50" waitingCount="1" stopTime="0.00" timeLoss="75.33" rerouteNo="0" devices="tripinfo_ES_22" vType="cars" speedFactor="0.97" vaporized=""/>
    <tripinfo id="WN_36" depart="158.00" departLane="2_1_3" departPos="5.10" departSpeed="0.00" departDelay="0.00" arrival="227.00" arrivalLane="1_5_2" arrivalPos="186.40" arrivalSpeed="12.92" duration="69.00" routeLength="392.22" waitingTime="27.00" waitingCount="1" stopTime="0.00" timeLoss="38.21" rerouteNo="0" devices="tripinfo_WN_36" vType="cars" speedFactor="1.03" vaporized=""/>
    <tripinfo id="ES_37" depart="160.00" departLane="4_1_3" departPos="5.10" departSpeed="0.00" departDelay="0.00" arrival="229.00" arrivalLane="1_3_2" arrivalPos="186.40" arrivalSpeed="11.84" duration="69.00" routeLength="392.22" waitingTime="22.00" waitingCount="1" stopTime="0.00" timeLoss="38.43" rerouteNo="0" devices="tripinfo_ES_37" vType="cars" speedFactor="1.11" vaporized=""/>
    <tripinfo id="NS_26" depart="130.00" departLane="5_1_2" departPos="5.10" departSpeed="0.00" departDelay="0.00" arrival="242.00" arrivalLane="1_3_1" arrivalPos="186.40" arrivalSpeed="12.06" duration="112.00" routeLength="395.15" waitingTime="72.00" waitingCount="1" stopTime="0.00" timeLoss="81.27" rerouteNo="0" devices="tripinfo_NS_26" vType="cars" speedFactor="1.04" vaporized=""/>
    <personinfo id="person_NS_w.9" depart="66.54" type="DEFAULT_PEDTYPE" speedFactor="1.06" duration="176.00" waitingTime="0.00" timeLoss="25.11" traveltime="176.00">
        <walk depart="67.00" departPos="100.00" arrival="243.00" arrivalPos="93.20" duration="176.00" routeLength="221.25" timeLoss="25.11" maxSpeed="1.47"/>
    </personinfo>
    <tripinfo id="SN_27" depart="130.00" departLane="3_1_2" departPos="5.10" departSpeed="0.00" departDelay="0.00" arrival="243.00" arrivalLane="1_5_1" arrivalPos="186.40" arrivalSpeed="12.67" duration="113.00" routeLength="395.15" waitingTime="71.00" waitingCount="1" stopTime="0.00" timeLoss="82.21" rerouteNo="0" devices="tripinfo_SN_27" vType="cars" speedFactor="1.11" vaporized=""/>
    <tripinfo id="NS_31" depart="141.00" departLane="5_1_2" departPos="5.10" departSpeed="0.00" departDelay="2.00" arrival="244.50" arrivalLane="1_3_2" arrivalPos="186.40" arrivalSpeed="12.68" duration="103.50" routeLength="395.15" waitingTime="60.50" waitingCount="1" stopTime="0.00" timeLoss="72.83" rerouteNo="0" devices="tripinfo_NS_31" vType="cars" speedFactor="1.01" vaporized=""/>
    <tripinfo id="NS_30" depart="138.00" departLane="5_1_2" departPos="5.10" departSpeed="0.00" departDelay="0.00" arrival="245.00" arrivalLane="1_3_1" arrivalPos="186.40" arrivalSpeed="11.71" duration="107.00" routeLength="395.15" waitingTime="61.50" waitingCount="1" stopTime="0.00" timeLoss="76.32" rerouteNo="0" devices="tripinfo_NS_30" vType="cars" speedFactor="1.01" vaporized=""/>
    <tripinfo id="SN_35" depart="156.00" departLane="3_1_2" departPos="5.10" departSpeed="0.00" departDelay="0.00" arrival="245.00" arrivalLane="1_5_2" arrivalPos="186.40" arrivalSpeed="12.35" duration="89.00" routeLength="395.15" waitingTime="44.00" waitingCount="1" stopTime="0.00" timeLoss="58.22" rerouteNo="0" devices="tripinfo_SN_35" vType="cars" speedFactor="1.06" vaporized=""/>
    <tripinfo id="SN_44" depart="198.50" departLane="3_1_2" departPos="5.10" departSpeed="0.00" departDelay="0.50" arrival="245.00" arrivalLane="1_5_1" arrivalPos="186.40" arrivalSpeed="12.06" duration="46.50" routeLength="395.15" waitingTime="0.00" waitingCount="0" stopTime="0.00" timeLoss="15.84" rerouteNo="0" devices="tripinfo_SN_44" vType="cars" speedFactor="1.00" vaporized=""/>
    <personinfo id="person_WE_s.2" depart="64.24" type="DEFAULT_PEDTYPE" speedFactor="1.20" duration="181.00" waitingTime="0.00" timeLoss="48.35" traveltime="181.00">
        <walk depart="64.50" departPos="100.00" arrival="245.50" arrivalPos="93.20" duration="181.00" routeLength="221.17" timeLoss="48.35" maxSpeed="1.67"/>
    </personinfo>
    <tripinfo id="NS_32" depart="147.00" departLane="5_1_2" departPos="5.10" departSpeed="0.00" departDelay="0.00" arrival="246.50" arrivalLane="1_3_2" arrivalPos="186.40" arrivalSpeed="12.83" duration="99.50" routeLength="395.15" waitingTime="53.50" waitingCount="1" stopTime="0.00" timeLoss="68.65" rerouteNo="0" devices="tripinfo_NS_32" vType="cars" speedFactor="1.00" vaporized=""/>
    <personinfo id="person_ES_diag.1" depart="59.42" type="DEFAULT_PEDTYPE" speedFactor="1.13" duration="187.50" waitingTime="0.00" timeLoss="45.07" traveltime="187.50">
        <walk depart="59.50" departPos="100.00" arrival="247.00" arrivalPos="93.20" duration="187.50" routeLength="223.30" timeLoss="45.07" maxSpeed="1.57"/>
    </personinfo>
    <tripinfo id="SN_42" depart="196.00" departLane="3_1_2" departPos="5.10" departSpeed="0.00" departDelay="0.00" arrival="247.00" arrivalLane="1_5_2" arrivalPos="186.40" arrivalSpeed="12.57" duration="51.00" routeLength="395.15" waitingTime="3.50" waitingCount="1" stopTime="0.00" timeLoss="20.29" rerouteNo="0" devices="tripinfo_SN_42" vType="cars" speedFactor="1.04" vaporized=""/>
    <tripinfo id="SN_46" depart="202.00" departLane="3_1_2" departPos="5.10" departSpeed="0.00" departDelay="0.00" arrival="247.00" arrivalLane="1_5_1" arrivalPos="186.40" arrivalSpeed="12.15" duration="45.00" routeLength="395.15" waitingTime="0.00" waitingCount="0" stopTime="0.00" timeLoss="14.43" rerouteNo="0" devices="tripinfo_SN_46" vType="cars" speedFactor="1.02" vaporized=""/>
    <personinfo id="person_WN_diag.3" depart="74.86" type="DEFAULT_PEDTYPE" speedFactor="1.13" duration="172.50" waitingTime="0.00" timeLoss="29.83" traveltime="172.50">
        <walk depart="75.00" departPos="100.00" arrival="247.50" arrivalPos="93.20" duration="172.50" routeLength="223.30" timeLoss="29.83" maxSpeed="1.57"/>
    </personinfo>
    <personinfo id="person_ES_diag.0" depart="51.35" type="DEFAULT_PEDTYPE" speedFactor="1.15" duration="196.50" waitingTime="0.00" timeLoss="54.99" traveltime="196.50">