<?xml version="1.0" encoding="UTF-8"?>

<!-- generated on 2025-02-22 17:14:41 by Eclipse SUMO GUI Version 1.16.0
<configuration xmlns:xsi="http://www.w3.org/2001/XMLSchema-instance" xsi:noNamespaceSchemaLocation="http://sumo.dlr.de/xsd/sumoConfiguration.xsd">

    <input>
        <net-file value="/Users/shakibanaderian/Desktop/Multimodal SVCC project/CET593/Multiscale-Traffic-Control/SourceCodes/environment/network_model/single_intersection_pedestrian_X.net.xml"/>
        <route-files value="/Users/shakibanaderian/Desktop/Multimodal SVCC project/CET593/Multiscale-Traffic-Control/SourceCodes/environment/network_model/single_intersection.rou.xml"/>
        <additional-files value="/Users/shakibanaderian/Desktop/Multimodal SVCC project/CET593/Multiscale-Traffic-Control/SourceCodes/environment/network_model/single_intersection.add_actuated.xml"/>
    </input>

    <output>
        <queue-output value="/Users/shakibanaderian/Desktop/Multimodal SVCC project/CET593/Multiscale-Traffic-Control/SourceCodes/environment/simulation_data/single_intersection/queues_actuated_symmetric_pene_100.xml"/>
        <tripinfo-output value="/Users/shakibanaderian/Desktop/Multimodal SVCC project/CET593/Multiscale-Traffic-Control/SourceCodes/environment/simulation_data/single_intersection/tripinfo_actuated_symmetric_pene_100.xml"/>
    </output>

    <time>
        <begin value="0"/>
        <step-length value="0.5"/>
    </time>

    <processing>
        <waiting-time-memory value="1000"/>
    </processing>

    <report>
        <verbose value="true"/>
        <no-step-log value="true"/>
    </report>

    <traci_server>
        <remote-port value="56876"/>
    </traci_server>

    <gui_only>
        <start value="true"/>
    </gui_only>

</configuration>
-->

<tripinfos xmlns:xsi="http://www.w3.org/2001/XMLSchema-instance" xsi:noNamespaceSchemaLocation="http://sumo.dlr.de/xsd/tripinfo_file.xsd">
</tripinfos>
 id="SN_0" depart="0.00" departLane="3_1_2" departPos="5.10" departSpeed="0.00" departDelay="0.00" arrival="35.50" arrivalLane="1_5_1" arrivalPos="186.40" arrivalSpeed="11.82" duration="35.50" routeLength="395.15" waitingTime="0.00" waitingCount="0" stopTime="0.00" timeLoss="4.91" rerouteNo="0" devices="tripinfo_SN_0" vType="cars" speedFactor="1.04" vaporized=""/>
    <tripinfo id="NS_1" depart="1.00" departLane="5_1_2" departPos="5.10" departSpeed="0.00" departDelay="0.00" arrival="38.00" arrivalLane="1_3_1" arrivalPos="186.40" arrivalSpeed="12.76" duration="37.00" routeLength="395.15" waitingTime="0.00" waitingCount="0" stopTime="0.00" timeLoss="6.18" rerouteNo="0" devices="tripinfo_NS_1" vType="cars" speedFactor="0.95" vaporized=""/>
    <tripinfo id="SN_2" depart="5.00" departLane="3_1_2" departPos="5.10" departSpeed="0.00" departDelay="0.00" arrival="40.00" arrivalLane="1_5_1" arrivalPos="186.40" arrivalSpeed="11.54" duration="35.00" routeLength="395.15" waitingTime="0.00" waitingCount="0" stopTime="0.00" timeLoss="4.54" rerouteNo="0" devices="tripinfo_SN_2" vType="cars" speedFactor="0.85" vaporized=""/>
    <tripinfo id="SE_4" depart="9.00" departLane="3_1_1" departPos="5.10" departSpeed="0.00" departDelay="0.00" arrival="46.00" arrivalLane="1_4_1" arrivalPos="186.40" arrivalSpeed="11.81" duration="37.00" routeLength="379.42" waitingTime="0.00" waitingCount="0" stopTime="0.00" timeLoss="7.04" rerouteNo="0" devices="tripinfo_SE_4" vType="cars" speedFactor="1.10" vaporized=""/>
    <tripinfo id="NS_5" depart="11.00" departLane="5_1_2" departPos="5.10" departSpeed="0.00" departDelay="0.00" arrival="48.00" arrivalLane="1_3_1" arrivalPos="186.40" arrivalSpeed="12.97" duration="37.00" routeLength="395.15" waitingTime="0.00" waitingCount="0" stopTime="0.00" timeLoss="6.29" rerouteNo="0" devices="tripinfo_NS_5" vType="cars" speedFactor="1.17" vaporized=""/>
    <tripinfo id="NS_8" depart="17.00" departLane="5_1_2" departPos="5.10" departSpeed="0.00" departDelay="0.00" arrival="53.50" arrivalLane="1_3_1" arrivalPos="186.40" arrivalSpeed="12.62" duration="36.50" routeLength="395.15" waitingTime="0.00" waitingCount="0" stopTime="0.00" timeLoss="5.81" rerouteNo="0" devices="tripinfo_NS_8" vType="cars" speedFactor="1.01" vaporized=""/>
    <tripinfo id="SN_9" depart="18.00" departLane="3_1_2" departPos="5.10" departSpeed="0.00" departDelay="0.00" arrival="53.50" arrivalLane="1_5_1" arrivalPos="186.40" arrivalSpeed="12.53" duration="35.50" routeLength="395.15" waitingTime="0.00" waitingCount="0" stopTime="0.00" timeLoss="4.83" rerouteNo="0" devices="tripinfo_SN_9" vType="cars" speedFactor="1.04" vaporized=""/>
    <tripinfo id="NS_11" depart="20.00" departLane="5_1_2" departPos="5.10" departSpeed="0.00" departDelay="0.00" arrival="56.50" arrivalLane="1_3_1" arrivalPos="186.40" arrivalSpeed="12.99" duration="36.50" routeLength="395.15" waitingTime="0.00" waitingCount="0" stopTime="0.00" timeLoss="5.78" rerouteNo="0" devices="tripinfo_NS_11" vType="cars" speedFactor="1.00" vaporized=""/>
    <tripinfo id="SN_12" depart="25.00" departLane="3_1_2" departPos="5.10" departSpeed="0.00" departDelay="0.00" arrival="60.00" arrivalLane="1_5_1" arrivalPos="186.40" arrivalSpeed="12.92" duration="35.00" routeLength="395.15" waitingTime="0.00" waitingCount="0" stopTime="0.00" timeLoss="4.54" rerouteNo="0" devices="tripinfo_SN_12" vType="cars" speedFactor="0.97" vaporized=""/>
    <tripinfo id="NS_13" depart="26.00" departLane="5_1_2" departPos="5.10" departSpeed="0.00" departDelay="0.00" arrival="61.50" arrivalLane="1_3_1" arrivalPos="186.40" arrivalSpeed="12.73" duration="35.50" routeLength="395.15" waitingTime="0.00" waitingCount="0" stopTime="0.00" timeLoss="5.02" rerouteNo="0" devices="tripinfo_NS_13" vType="cars" speedFactor="0.89" vaporized=""/>
    <tripinfo id="SN_15" depart="29.00" departLane="3_1_2" departPos="5.10" departSpeed="0.00" departDelay="0.00" arrival="63.50" arrivalLane="1_5_1" arrivalPos="186.40" arrivalSpeed="12.95" duration="34.50" routeLength="395.15" waitingTime="0.00" waitingCount="0" stopTime="0.00" timeLoss="4.02" rerouteNo="0" devices="tripinfo_SN_15" vType="cars" speedFactor="0.90" vaporized=""/>
    <tripinfo id="NS_14" depart="29.00" departLane="5_1_2" departPos="5.10" departSpeed="0.00" departDelay="2.00" arrival="65.00" arrivalLane="1_3_1" arrivalPos="186.40" arrivalSpeed="12.78" duration="36.00" routeLength="395.15" waitingTime="0.00" waitingCount="0" stopTime="0.00" timeLoss="5.37" rerouteNo="0" devices="tripinfo_NS_14" vType="cars" speedFactor="0.84" vaporized=""/>
    <tripinfo id="NS_16" depart="32.00" departLane="5_1_2" departPos="5.10" departSpeed="0.00" departDelay="2.00" arrival="68.00" arrivalLane="1_3_1" arrivalPos="186.40" arrivalSpeed="12.63" duration="36.00" routeLength="395.15" waitingTime="0.00" waitingCount="0" stopTime="0.00" timeLoss="5.49" rerouteNo="0" devices="tripinfo_NS_16" vType="cars" speedFactor="1.13" vaporized=""/>
    <tripinfo id="SN_17" depart="33.00" departLane="3_1_2" departPos="5.10" departSpeed="0.00" departDelay="0.00" arrival="69.50" arrivalLane="1_5_1" arrivalPos="186.40" arrivalSpeed="11.64" duration="36.50" routeLength="395.15" waitingTime="0.00" waitingCount="0" stopTime="0.00" timeLoss="5.99" rerouteNo="0" devices="tripinfo_SN_17" vType="cars" speedFactor="1.00" vaporized=""/>
    <tripinfo id="SN_18" depart="36.00" departLane="3_1_2" departPos="5.10" departSpeed="0.00" departDelay="0.00" arrival="72.00" arrivalLane="1_5_1" arrivalPos="186.40" arrivalSpeed="11.78" duration="36.00" routeLength="395.15" waitingTime="0.00" waitingCount="0" stopTime="0.00" timeLoss="5.23" rerouteNo="0" devices="tripinfo_SN_18" vType="cars" speedFactor="0.96" vaporized=""/>
    <tripinfo id="SE_19" depart="39.00" departLane="3_1_1" departPos="5.10" departSpeed="0.00" departDelay="0.00" arrival="75.50" arrivalLane="1_4_1" arrivalPos="186.40" arrivalSpeed="11.95" duration="36.50" routeLength="379.42" waitingTime="0.00" waitingCount="0" stopTime="0.00" timeLoss="6.16" rerouteNo="0" devices="tripinfo_SE_19" vType="cars" speedFactor="0.99" vaporized=""/>
    <tripinfo id="SN_20" depart="40.00" departLane="3_1_2" departPos="5.10" departSpeed="0.00" departDelay="0.00" arrival="77.00" arrivalLane="1_5_1" arrivalPos="186.40" arrivalSpeed="11.87" duration="37.00" routeLength="395.15" waitingTime="0.00" waitingCount="0" stopTime="0.00" timeLoss="6.33" rerouteNo="0" devices="tripinfo_SN_20" vType="cars" speedFactor="0.93" vaporized=""/>
</tripinfos>
