<?xml version="1.0" encoding="UTF-8"?>

<!-- generated on 2025-02-27 16:42:04 by Eclipse SUMO GUI Version 1.20.0
<configuration xmlns:xsi="http://www.w3.org/2001/XMLSchema-instance" xsi:noNamespaceSchemaLocation="http://sumo.dlr.de/xsd/sumoConfiguration.xsd">

    <input>
        <net-file value="/home/naderian/Desktop/Shakiba/CET593/environment/network_model/single_intersection_pedestrian_X.net.xml"/>
        <route-files value="/home/naderian/Desktop/Shakiba/CET593/environment/network_model/single_intersection.rou.xml"/>
        <additional-files value="/home/naderian/Desktop/Shakiba/CET593/environment/network_model/single_intersection.add_fixed_time.xml"/>
    </input>

    <output>
        <queue-output value="/home/naderian/Desktop/Shakiba/CET593/environment/simulation_data/single_intersection/queues_fixed_time_symmetric_pene_100.xml"/>
        <tripinfo-output value="/home/naderian/Desktop/Shakiba/CET593/environment/simulation_data/single_intersection/tripinfo_fixed_time_symmetric_pene_100.xml"/>
    </output>

    <time>
        <begin value="0"/>
        <step-length value="0.5"/>
    </time>

    <processing>
        <waiting-time-memory value="1000"/>
    </processing>

    <report>
        <verbose value="true"/>
        <no-step-log value="true"/>
    </report>

    <traci_server>
        <remote-port value="50105"/>
    </traci_server>

    <gui_only>
        <start value="true"/>
    </gui_only>

</configuration>
-->

<tripinfos xmlns:xsi="http://www.w3.org/2001/XMLSchema-instance" xsi:noNamespaceSchemaLocation="http://sumo.dlr.de/xsd/tripinfo_file.xsd">
    <tripinfo id="SN_0" depart="0.00" departLane="3_1_2" departPos="5.10" departSpeed="0.00" departDelay="0.00" arrival="35.50" arrivalLane="1_5_1" arrivalPos="186.40" arrivalSpeed="11.82" duration="35.50" routeLength="395.15" waitingTime="0.00" waitingCount="0" stopTime="0.00" timeLoss="4.99" rerouteNo="0" devices="tripinfo_SN_0" vType="cars" speedFactor="0.97" vaporized=""/>
    <tripinfo id="NS_1" depart="1.00" departLane="5_1_2" departPos="5.10" departSpeed="0.00" departDelay="0.00" arrival="38.00" arrivalLane="1_3_1" arrivalPos="186.40" arrivalSpeed="12.65" duration="37.00" routeLength="395.15" waitingTime="0.00" waitingCount="0" stopTime="0.00" timeLoss="6.30" rerouteNo="0" devices="tripinfo_NS_1" vType="cars" speedFactor="1.11" vaporized=""/>
    <tripinfo id="SN_2" depart="5.00" departLane="3_1_2" departPos="5.10" departSpeed="0.00" departDelay="0.00" arrival="40.00" arrivalLane="1_5_1" arrivalPos="186.40" arrivalSpeed="11.68" duration="35.00" routeLength="395.15" waitingTime="0.00" waitingCount="0" stopTime="0.00" timeLoss="4.48" rerouteNo="0" devices="tripinfo_SN_2" vType="cars" speedFactor="0.86" vaporized=""/>
    <tripinfo id="WE_1" depart="10.00" departLane="2_1_2" departPos="5.10" departSpeed="0.00" departDelay="0.00" arrival="73.50" arrivalLane="1_4_1" arrivalPos="186.40" arrivalSpeed="12.65" duration="63.50" routeLength="395.15" waitingTime="24.50" waitingCount="1" stopTime="0.00" timeLoss="33.05" rerouteNo="0" devices="tripinfo_WE_1" vType="cars" speedFactor="1.06" vaporized=""/>
    <tripinfo id="EW_0" depart="19.00" departLane="4_1_2" departPos="5.10" departSpeed="0.00" departDelay="0.00" arrival="73.50" arrivalLane="1_2_1" arrivalPos="186.40" arrivalSpeed="12.78" duration="54.50" routeLength="395.15" waitingTime="15.00" waitingCount="1" stopTime="0.00" timeLoss="24.06" rerouteNo="0" devices="tripinfo_EW_0" vType="cars" speedFactor="1.05" vaporized=""/>
    <tripinfo id="EW_1" depart="22.00" departLane="4_1_2" departPos="5.10" departSpeed="0.00" departDelay="1.00" arrival="74.00" arrivalLane="1_2_2" arrivalPos="186.40" arrivalSpeed="12.94" duration="52.00" routeLength="395.15" waitingTime="11.00" waitingCount="1" stopTime="0.00" timeLoss="21.22" rerouteNo="0" devices="tripinfo_EW_1" vType="cars" speedFactor="1.01" vaporized=""/>
    <tripinfo id="WE_0" depart="1.00" departLane="2_1_2" departPos="5.10" departSpeed="0.00" departDelay="0.00" arrival="75.50" arrivalLane="1_4_1" arrivalPos="186.40" arrivalSpeed="12.00" duration="74.50" routeLength="395.15" waitingTime="32.50" waitingCount="1" stopTime="0.00" timeLoss="43.99" rerouteNo="0" devices="tripinfo_WE_0" vType="cars" speedFactor="0.91" vaporized=""/>
    <tripinfo id="WE_2" depart="12.50" departLane="2_1_2" departPos="5.10" departSpeed="0.00" departDelay="0.50" arrival="76.00" arrivalLane="1_4_2" arrivalPos="186.40" arrivalSpeed="12.94" duration="63.50" routeLength="395.15" waitingTime="19.50" waitingCount="1" stopTime="0.00" timeLoss="33.09" rerouteNo="0" devices="tripinfo_WE_2" vType="cars" speedFactor="0.94" vaporized=""/>
    <tripinfo id="WS_3" depart="7.00" departLane="2_1_1" departPos="5.10" departSpeed="0.00" departDelay="0.00" arrival="76.50" arrivalLane="1_3_1" arrivalPos="186.40" arrivalSpeed="12.74" duration="69.50" routeLength="379.43" waitingTime="24.50" waitingCount="1" stopTime="0.00" timeLoss="39.37" rerouteNo="0" devices="tripinfo_WS_3" vType="cars" speedFactor="0.95" vaporized=""/>
    <tripinfo id="WE_3" depart="43.00" departLane="2_1_2" departPos="5.10" departSpeed="0.00" departDelay="0.00" arrival="78.50" arrivalLane="1_4_1" arrivalPos="186.40" arrivalSpeed="12.85" duration="35.50" routeLength="395.15" waitingTime="0.00" waitingCount="0" stopTime="0.00" timeLoss="4.97" rerouteNo="0" devices="tripinfo_WE_3" vType="cars" speedFactor="1.05" vaporized=""/>
    <tripinfo id="EW_2" depart="46.00" departLane="4_1_2" departPos="5.10" departSpeed="0.00" departDelay="0.00" arrival="81.50" arrivalLane="1_2_1" arrivalPos="186.40" arrivalSpeed="11.73" duration="35.50" routeLength="395.15" waitingTime="0.00" waitingCount="0" stopTime="0.00" timeLoss="4.84" rerouteNo="0" devices="tripinfo_EW_2" vType="cars" speedFactor="1.05" vaporized=""/>
    <tripinfo id="ES_4" depart="14.00" departLane="4_1_3" departPos="5.10" departSpeed="0.00" departDelay="0.00" arrival="112.00" arrivalLane="1_3_2" arrivalPos="186.40" arrivalSpeed="12.42" duration="98.00" routeLength="392.22" waitingTime="56.50" waitingCount="1" stopTime="0.00" timeLoss="67.15" rerouteNo="0" devices="tripinfo_ES_4" vType="cars" speedFactor="0.97" vaporized=""/>
    <tripinfo id="ES_6" depart="31.00" departLane="4_1_3" departPos="5.10" departSpeed="0.00" departDelay="0.00" arrival="114.50" arrivalLane="1_3_2" arrivalPos="186.40" arrivalSpeed="12.65" duration="83.50" routeLength="392.22" waitingTime="38.00" waitingCount="1" stopTime="0.00" timeLoss="52.66" rerouteNo="0" devices="tripinfo_ES_6" vType="cars" speedFactor="1.07" vaporized=""/>
    <tripinfo id="SN_10" depart="48.00" departLane="3_1_2" departPos="5.10" departSpeed="0.00" departDelay="0.00" arrival="128.50" arrivalLane="1_5_1" arrivalPos="186.40" arrivalSpeed="11.92" duration="80.50" routeLength="395.15" waitingTime="39.50" waitingCount="1" stopTime="0.00" timeLoss="50.05" rerouteNo="0" devices="tripinfo_SN_10" vType="cars" speedFactor="1.02" vaporized=""/>
    <tripinfo id="NS_12" depart="80.00" departLane="5_1_2" departPos="5.10" departSpeed="0.00" departDelay="0.00" arrival="129.00" arrivalLane="1_3_2" arrivalPos="186.40" arrivalSpeed="12.73" duration="49.00" routeLength="395.15" waitingTime="7.00" waitingCount="1" stopTime="0.00" timeLoss="18.36" rerouteNo="0" devices="tripinfo_NS_12" vType="cars" speedFactor="1.07" vaporized=""/>
    <tripinfo id="SN_11" depart="70.00" departLane="3_1_2" departPos="5.10" departSpeed="0.00" departDelay="0.00" arrival="129.50" arrivalLane="1_5_2" arrivalPos="186.40" arrivalSpeed="12.02" duration="59.50" routeLength="395.15" waitingTime="18.50" waitingCount="1" stopTime="0.00" timeLoss="28.96" rerouteNo="0" devices="tripinfo_SN_11" vType="cars" speedFactor="1.02" vaporized=""/>
    <tripinfo id="NS_5" depart="22.00" departLane="5_1_2" departPos="5.10" departSpeed="0.00" departDelay="0.00" arrival="130.00" arrivalLane="1_3_1" arrivalPos="186.40" arrivalSpeed="12.14" duration="108.00" routeLength="395.15" waitingTime="65.00" waitingCount="1" stopTime="0.00" timeLoss="77.28" rerouteNo="0" devices="tripinfo_NS_5" vType="cars" speedFactor="1.01" vaporized=""/>
    <tripinfo id="SN_16" depart="93.00" departLane="3_1_2" departPos="5.10" departSpeed="0.00" departDelay="0.00" arrival="130.50" arrivalLane="1_5_1" arrivalPos="186.40" arrivalSpeed="11.52" duration="37.50" routeLength="395.15" waitingTime="0.00" waitingCount="0" stopTime="0.00" timeLoss="7.05" rerouteNo="0" devices="tripinfo_SN_16" vType="cars" speedFactor="0.91" vaporized=""/>
    <tripinfo id="NS_15" depart="92.00" departLane="5_1_2" departPos="5.10" departSpeed="0.00" departDelay="0.00" arrival="131.00" arrivalLane="1_3_2" arrivalPos="186.40" arrivalSpeed="12.62" duration="39.00" routeLength="395.15" waitingTime="0.00" waitingCount="0" stopTime="0.00" timeLoss="8.44" rerouteNo="0" devices="tripinfo_NS_15" vType="cars" speedFactor="1.01" vaporized=""/>
    <tripinfo id="SN_14" depart="90.00" departLane="3_1_2" departPos="5.10" departSpeed="0.00" departDelay="0.00" arrival="131.50" arrivalLane="1_5_2" arrivalPos="186.40" arrivalSpeed="11.71" duration="41.50" routeLength="395.15" waitingTime="0.00" waitingCount="0" stopTime="0.00" timeLoss="10.89" rerouteNo="0" devices="tripinfo_SN_14" vType="cars" speedFactor="1.05" vaporized=""/>
    <tripinfo id="NS_18" depart="99.00" departLane="5_1_2" departPos="5.10" departSpeed="0.00" departDelay="0.00" arrival="136.00" arrivalLane="1_3_1" arrivalPos="186.40" arrivalSpeed="12.64" duration="37.00" routeLength="395.15" waitingTime="0.00" waitingCount="0" stopTime="0.00" timeLoss="6.55" rerouteNo="0" devices="tripinfo_NS_18" vType="cars" speedFactor="0.84" vaporized=""/>
    <tripinfo id="NW_7" depart="37.00" departLane="5_1_1" departPos="5.10" departSpeed="0.00" departDelay="0.00" arrival="142.50" arrivalLane="1_2_1" arrivalPos="186.40" arrivalSpeed="11.82" duration="105.50" routeLength="379.43" waitingTime="58.50" waitingCount="2" stopTime="0.00" timeLoss="75.41" rerouteNo="0" devices="tripinfo_NW_7" vType="cars" speedFactor="1.13" vaporized=""/>
    <tripinfo id="SN_20" depart="109.00" departLane="3_1_2" departPos="5.10" departSpeed="0.00" departDelay="0.00" arrival="145.00" arrivalLane="1_5_2" arrivalPos="186.40" arrivalSpeed="12.63" duration="36.00" routeLength="395.15" waitingTime="0.00" waitingCount="0" stopTime="0.00" timeLoss="5.50" rerouteNo="0" devices="tripinfo_SN_20" vType="cars" speedFactor="0.89" vaporized=""/>
    <tripinfo id="NW_9" depart="41.00" departLane="5_1_1" departPos="5.10" departSpeed="0.00" departDelay="0.00" arrival="146.00" arrivalLane="1_2_1" arrivalPos="186.40" arrivalSpeed="12.03" duration="105.00" routeLength="379.43" waitingTime="54.50" waitingCount="3" stopTime="0.00" timeLoss="74.65" rerouteNo="0" devices="tripinfo_NW_9" vType="cars" speedFactor="0.91" vaporized=""/>
    <tripinfo id="SE_19" depart="100.00" departLane="3_1_1" departPos="5.10" departSpeed="0.00" departDelay="0.00" arrival="152.50" arrivalLane="1_4_1" arrivalPos="186.40" arrivalSpeed="12.80" duration="52.50" routeLength="379.42" waitingTime="11.50" waitingCount="2" stopTime="0.00" timeLoss="22.36" rerouteNo="0" devices="tripinfo_SE_19" vType="cars" speedFactor="0.92" vaporized=""/>
    <tripinfo id="SW_8" depart="40.00" departLane="3_1_3" departPos="5.10" departSpeed="0.00" departDelay="0.00" arrival="167.00" arrivalLane="1_2_2" arrivalPos="186.40" arrivalSpeed="12.46" duration="127.00" routeLength="392.22" waitingTime="83.50" waitingCount="1" stopTime="0.00" timeLoss="95.72" rerouteNo="0" devices="tripinfo_SW_8" vType="cars" speedFactor="0.85" vaporized=""/>
    <tripinfo id="SW_17" depart="93.00" departLane="3_1_3" departPos="5.10" departSpeed="0.00" departDelay="0.00" arrival="169.00" arrivalLane="1_2_2" arrivalPos="186.40" arrivalSpeed="12.84" duration="76.00" routeLength="392.22" waitingTime="29.00" waitingCount="1" stopTime="0.00" timeLoss="44.43" rerouteNo="0" devices="tripinfo_SW_17" vType="cars" speedFactor="0.83" vaporized=""/>
    <tripinfo id="SW_28" depart="136.00" departLane="3_1_3" departPos="5.10" departSpeed="0.00" departDelay="0.00" arrival="173.50" arrivalLane="1_2_2" arrivalPos="186.40" arrivalSpeed="11.65" duration="37.50" routeLength="392.22" waitingTime="0.00" waitingCount="0" stopTime="0.00" timeLoss="6.43" rerouteNo="0" devices="tripinfo_SW_28" vType="cars" speedFactor="0.88" vaporized=""/>
    <personinfo id="person_WE_s.0" depart="1.92" type="DEFAULT_PEDTYPE" speedFactor="0.98" duration="173.50" waitingTime="0.00" timeLoss="10.21" traveltime="173.50">
        <walk depart="2.00" departPos="100.00" arrival="175.50" arrivalPos="93.20" duration="173.50" routeLength="221.17" timeLoss="10.21" maxSpeed="1.35"/>
    </personinfo>
    <tripinfo id="EW_4" depart="123.00" departLane="4_1_2" departPos="5.10" departSpeed="0.00" departDelay="0.00" arrival="182.00" arrivalLane="1_2_2" arrivalPos="186.40" arrivalSpeed="11.50" duration="59.00" routeLength="395.15" waitingTime="19.50" waitingCount="1" stopTime="0.00" timeLoss="28.60" rerouteNo="0" devices="tripinfo_EW_4" vType="cars" speedFactor="1.11" vaporized=""/>
    <tripinfo id="WE_5" depart="86.00" departLane="2_1_2" departPos="5.10" departSpeed="0.00" departDelay="0.00" arrival="182.50" arrivalLane="1_4_2" arrivalPos="186.40" arrivalSpeed="11.84" duration="96.50" routeLength="395.15" waitingTime="53.50" waitingCount="1" stopTime="0.00" timeLoss="65.82" rerouteNo="0" devices="tripinfo_WE_5" vType="cars" speedFactor="0.99" vaporized=""/>
    <tripinfo id="EW_3" depart="68.00" departLane="4_1_2" departPos="5.10" departSpeed="0.00" departDelay="0.00" arrival="183.00" arrivalLane="1_2_1" arrivalPos="186.40" arrivalSpeed="11.52" duration="115.00" routeLength="395.15" waitingTime="73.00" waitingCount="1" stopTime="0.00" timeLoss="84.44" rerouteNo="0" devices="tripinfo_EW_3" vType="cars" speedFactor="0.98" vaporized=""/>
    <tripinfo id="WE_4" depart="67.00" departLane="2_1_2" departPos="5.10" departSpeed="0.00" departDelay="0.00" arrival="183.50" arrivalLane="1_4_1" arrivalPos="186.40" arrivalSpeed="12.04" duration="116.50" routeLength="395.15" waitingTime="74.00" waitingCount="1" stopTime="0.00" timeLoss="85.68" rerouteNo="0" devices="tripinfo_WE_4" vType="cars" speedFactor="0.96" vaporized=""/>
    <tripinfo id="WE_7" depart="125.00" departLane="2_1_2" departPos="5.10" departSpeed="0.00" departDelay="0.00" arrival="184.50" arrivalLane="1_4_2" arrivalPos="186.40" arrivalSpeed="12.20" duration="59.50" routeLength="395.15" waitingTime="15.00" waitingCount="1" stopTime="0.00" timeLoss="28.66" rerouteNo="0" devices="tripinfo_WE_7" vType="cars" speedFactor="1.02" vaporized=""/>
    <tripinfo id="WE_6" depart="89.50" departLane="2_1_2" departPos="5.10" departSpeed="0.00" departDelay="2.50" arrival="185.00" arrivalLane="1_4_1" arrivalPos="186.40" arrivalSpeed="12.01" duration="95.50" routeLength="395.15" waitingTime="49.50" waitingCount="1" stopTime="0.00" timeLoss="65.06" rerouteNo="0" devices="tripinfo_WE_6" vType="cars" speedFactor="0.93" vaporized=""/>
    <tripinfo id="EW_5" depart="125.50" departLane="4_1_2" departPos="5.10" departSpeed="0.00" departDelay="0.50" arrival="185.00" arrivalLane="1_2_2" arrivalPos="186.40" arrivalSpeed="12.85" duration="59.50" routeLength="395.15" waitingTime="13.00" waitingCount="1" stopTime="0.00" timeLoss="28.84" rerouteNo="0" devices="tripinfo_EW_5" vType="cars" speedFactor="1.09" vaporized=""/>
    <tripinfo id="WE_8" depart="134.00" departLane="2_1_2" departPos="5.10" departSpeed="0.00" departDelay="0.00" arrival="186.50" arrivalLane="1_4_2" arrivalPos="186.40" arrivalSpeed="11.55" duration="52.50" routeLength="395.15" waitingTime="6.50" waitingCount="1" stopTime="0.00" timeLoss="21.77" rerouteNo="0" devices="tripinfo_WE_8" vType="cars" speedFactor="1.01" vaporized=""/>
    <tripinfo id="EW_6" depart="137.00" departLane="4_1_2" departPos="5.10" departSpeed="0.00" departDelay="0.00" arrival="188.00" arrivalLane="1_2_1" arrivalPos="186.40" arrivalSpeed="12.44" duration="51.00" routeLength="395.15" waitingTime="4.50" waitingCount="1" stopTime="0.00" timeLoss="20.22" rerouteNo="0" devices="tripinfo_EW_6" vType="cars" speedFactor="1.08" vaporized=""/>
    <personinfo id="person_NS_w.1" depart="10.87" type="DEFAULT_PEDTYPE" speedFactor="1.12" duration="180.00" waitingTime="0.00" timeLoss="37.68" traveltime="180.00">
        <walk depart="11.00" departPos="100.00" arrival="191.00" arrivalPos="93.20" duration="180.00" routeLength="221.25" timeLoss="37.68" maxSpeed="1.55"/>
    </personinfo>
    <tripinfo id="EN_21" depart="111.00" departLane="4_1_1" departPos="5.10" departSpeed="0.00" departDelay="0.00" arrival="196.50" arrivalLane="1_5_1" arrivalPos="186.40" arrivalSpeed="12.95" duration="85.50" routeLength="379.42" waitingTime="39.00" waitingCount="2" stopTime="0.00" timeLoss="55.51" rerouteNo="0" devices="tripinfo_EN_21" vType="cars" speedFactor="1.00" vaporized=""/>
    <tripinfo id="WS_23" depart="125.00" departLane="2_1_1" departPos="5.10" departSpeed="0.00" departDelay="0.00" arrival="197.50" arrivalLane="1_3_1" arrivalPos="186.40" arrivalSpeed="12.74" duration="72.50" routeLength="379.43" waitingTime="21.50" waitingCount="2" stopTime="0.00" timeLoss="42.39" rerouteNo="0" devices="tripinfo_WS_23" vType="cars" speedFactor="1.02" vaporized=""/>
    <personinfo id="person_NE_diag.0" depart="4.87" type="DEFAULT_PEDTYPE" speedFactor="0.99" duration="193.50" waitingTime="0.00" timeLoss="30.63" traveltime="193.50">
        <walk depart="5.00" departPos="100.00" arrival="198.50" arrivalPos="93.20" duration="193.50" routeLength="223.30" timeLoss="30.63" maxSpeed="1.37"/>
    </personinfo>
    <tripinfo id="EN_29" depart="137.00" departLane="4_1_1" departPos="5.10" departSpeed="0.00" departDelay="0.00" arrival="199.00" arrivalLane="1_5_1" arrivalPos="186.40" arrivalSpeed="12.45" duration="62.00" routeLength="379.42" waitingTime="11.50" waitingCount="2" stopTime="0.00" timeLoss="32.10" rerouteNo="0" devices="tripinfo_EN_29" vType="cars" speedFactor="1.15" vaporized=""/>
    <personinfo id="person_NS_w.2" depart="10.90" type="DEFAULT_PEDTYPE" speedFactor="1.00" duration="190.50" waitingTime="0.00" timeLoss="30.87" traveltime="190.50">
        <walk depart="11.00" departPos="100.00" arrival="201.50" arrivalPos="93.20" duration="190.50" routeLength="221.25" timeLoss="30.87" maxSpeed="1.39"/>
    </personinfo>
    <personinfo id="person_NS_w.3" depart="12.93" type="DEFAULT_PEDTYPE" speedFactor="0.99" duration="189.00" waitingTime="0.00" timeLoss="27.61" traveltime="189.00">
        <walk depart="13.00" departPos="100.00" arrival="202.00" arrivalPos="93.20" duration="189.00" routeLength="221.25" timeLoss="27.61" maxSpeed="1.37"/>
    </personinfo>
    <personinfo id="person_NS_w.0" depart="3.48" type="DEFAULT_PEDTYPE" speedFactor="1.00" duration="200.00" waitingTime="0.00" timeLoss="40.22" traveltime="200.00">
        <walk depart="3.50" departPos="100.00" arrival="203.50" arrivalPos="93.20" duration="200.00" routeLength="221.25" timeLoss="40.22" maxSpeed="1.38"/>
    </personinfo>
    <personinfo id="person_SN_e.0" depart="16.32" type="DEFAULT_PEDTYPE" speedFactor="0.96" duration="188.50" waitingTime="0.00" timeLoss="22.83" traveltime="188.50">
        <walk depart="16.50" departPos="100.00" arrival="205.00" arrivalPos="93.20" duration="188.50" routeLength="221.24" timeLoss="22.83" maxSpeed="1.34"/>
    </personinfo>
    <personinfo id="person_NS_w.4" depart="22.10" type="DEFAULT_PEDTYPE" speedFactor="0.96" duration="184.50" waitingTime="0.00" timeLoss="18.51" traveltime="184.50">
        <walk depart="22.50" departPos="100.00" arrival="207.00" arrivalPos="93.20" duration="184.50" routeLength="221.25" timeLoss="18.51" maxSpeed="1.33"/>
    </personinfo>
    <personinfo id="person_NS_w.5" depart="28.81" type="DEFAULT_PEDTYPE" speedFactor="0.91" duration="184.00" waitingTime="0.00" timeLoss="8.33" traveltime="184.00">
        <walk depart="29.00" departPos="100.00" arrival="213.00" arrivalPos="93.20" duration="184.00" routeLength="221.25" timeLoss="8.33" maxSpeed="1.26"/>
    </personinfo>
    <tripinfo id="ES_22" depart="119.00" departLane="4_1_3" departPos="5.10" departSpeed="0.00" departDelay="0.00" arrival="220.50" arrivalLane="1_3_2" arrivalPos="186.40" arrivalSpeed="12.88" duration="101.50" routeLength="392.22" waitingTime="59.00" waitingCount="1" stopTime="0.00" timeLoss="70.72" rerouteNo="0" devices="tripinfo_ES_22" vType="cars" speedFactor="0.97" vaporized=""/>
    <tripinfo id="WN_13" depart="85.00" departLane="2_1_3" departPos="5.10" departSpeed="0.00" departDelay="0.00" arrival="221.00" arrivalLane="1_5_2" arrivalPos="186.40" arrivalSpeed="12.25" duration="136.00" routeLength="392.22" waitingTime="93.00" waitingCount="1" stopTime="0.00" timeLoss="105.20" rerouteNo="0" devices="tripinfo_WN_13" vType="cars" speedFactor="0.99" vaporized=""/>
    <personinfo id="person_NS_w.6" depart="35.57" type="DEFAULT_PEDTYPE" speedFactor="0.95" duration="187.00" waitingTime="0.00" timeLoss="18.93" traveltime="187.00">
        <walk depart="36.00" departPos="100.00" arrival="223.00" arrivalPos="93.20" duration="187.00" routeLength="221.25" timeLoss="18.93" maxSpeed="1.32"/>
    </personinfo>
    <personinfo id="person_NS_w.7" depart="50.97" type="DEFAULT_PEDTYPE" speedFactor="1.02" duration="172.50" waitingTime="0.00" timeLoss="16.65" traveltime="172.50">
        <walk depart="51.00" departPos="100.00" arrival="223.50" arrivalPos="93.20" duration="172.50" routeLength="221.25" timeLoss="16.65" maxSpeed="1.42"/>
    </personinfo>
    <tripinfo id="ES_37" depart="160.00" departLane="4_1_3" departPos="5.10" departSpeed="0.00" departDelay="0.00" arrival="223.50" arrivalLane="1_3_2" arrivalPos="186.40" arrivalSpeed="11.78" duration="63.50" routeLength="392.22" waitingTime="16.00" waitingCount="1" stopTime="0.00" timeLoss="32.87" rerouteNo="0" devices="tripinfo_ES_37" vType="cars" speedFactor="1.11" vaporized=""/>
    <tripinfo id="WN_36" depart="158.00" departLane="2_1_3" departPos="5.10" departSpeed="0.00" departDelay="0.00" arrival="224.00" arrivalLane="1_5_2" arrivalPos="186.40" arrivalSpeed="12.71" duration="66.00" routeLength="392.22" waitingTime="19.50" waitingCount="1" stopTime="0.00" timeLoss="35.08" rerouteNo="0" devices="tripinfo_WN_36" vType="cars" speedFactor="1.03" vaporized=""/>
    <personinfo id="person_SN_e.1" depart="49.21" type="DEFAULT_PEDTYPE" speedFactor="0.96" duration="175.50" waitingTime="0.00" timeLoss="9.52" traveltime="175.50">
        <walk depart="49.50" departPos="100.00" arrival="225.00" arrivalPos="93.20" duration="175.50" routeLength="221.24" timeLoss="9.52" maxSpeed="1.33"/>
    </personinfo>
    <personinfo id="person_NS_w.9" depart="66.54" type="DEFAULT_PEDTYPE" speedFactor="1.06" duration="159.00" waitingTime="0.00" timeLoss="8.11" traveltime="159.00">
        <walk depart="67.00" departPos="100.00" arrival="226.00" arrivalPos="93.20" duration="159.00" routeLength="221.25" timeLoss="8.11" maxSpeed="1.47"/>
    </personinfo>
    <tripinfo id="NS_24" depart="125.00" departLane="5_1_2" departPos="5.10" departSpeed="0.00" departDelay="0.00" arrival="236.00" arrivalLane="1_3_1" arrivalPos="186.40" arrivalSpeed="12.87" duration="111.00" routeLength="395.15" waitingTime="71.00" waitingCount="1" stopTime="0.00" timeLoss="80.47" rerouteNo="0" devices="tripinfo_NS_24" vType="cars" speedFactor="1.22" vaporized=""/>
    <tripinfo id="NS_26" depart="130.00" departLane="5_1_2" departPos="5.10" departSpeed="0.00" departDelay="0.00" arrival="236.50" arrivalLane="1_3_2" arrivalPos="186.40" arrivalSpeed="12.76" duration="106.50" routeLength="395.15" waitingTime="66.00" waitingCount="1" stopTime="0.00" timeLoss="76.00" rerouteNo="0" devices="tripinfo_NS_26" vType="cars" speedFactor="1.04" vaporized=""/>
    <tripinfo id="SN_25" depart="126.00" departLane="3_1_2" departPos="5.10" departSpeed="0.00" departDelay="0.00" arrival="237.00" arrivalLane="1_5_1" arrivalPos="186.40" arrivalSpeed="12.37" duration="111.00" routeLength="395.15" waitingTime="69.50" waitingCount="1" stopTime="0.00" timeLoss="80.31" rerouteNo="0" devices="tripinfo_SN_25" vType="cars" speedFactor="0.91" vaporized=""/>
    <personinfo id="person_NS_w.8" depart="52.94" type="DEFAULT_PEDTYPE" speedFactor="0.93" duration="184.50" waitingTime="0.00" timeLoss="12.83" traveltime="184.50">
        <walk depart="53.00" departPos="100.00" arrival="237.50" arrivalPos="93.20" duration="184.50" routeLength="221.25" timeLoss="12.83" maxSpeed="1.29"/>
    </personinfo>
    <tripinfo id="NS_30" depart="138.00" departLane="5_1_2" departPos="5.10" departSpeed="0.00" departDelay="0.00" arrival="238.00" arrivalLane="1_3_1" arrivalPos="186.40" arrivalSpeed="11.74" duration="100.00" routeLength="395.15" waitingTime="55.50" waitingCount="1" stopTime="0.00" timeLoss="69.41" rerouteNo="0" devices="tripinfo_NS_30" vType="cars" speedFactor="1.01" vaporized=""/>
    <tripinfo id="SN_27" depart="130.00" departLane="3_1_2" departPos="5.10" departSpeed="0.00" departDelay="0.00" arrival="238.50" arrivalLane="1_5_2" arrivalPos="186.40" arrivalSpeed="12.11" duration="108.50" routeLength="395.15" waitingTime="65.50" waitingCount="1" stopTime="0.00" timeLoss="77.93" rerouteNo="0" devices="tripinfo_SN_27" vType="cars" speedFactor="1.11" vaporized=""/>
    <tripinfo id="NS_31" depart="141.50" departLane="5_1_2" departPos="5.10" departSpeed="0.00" departDelay="2.50" arrival="238.50" arrivalLane="1_3_2" arrivalPos="186.40" arrivalSpeed="11.59" duration="97.00" routeLength="395.15" waitingTime="51.00" waitingCount="1" stopTime="0.00" timeLoss="66.27" rerouteNo="0" devices="tripinfo_NS_31" vType="cars" speedFactor="1.01" vaporized=""/>
    <personinfo id="person_WE_s.2" depart="64.24" type="DEFAULT_PEDTYPE" speedFactor="1.20" duration="175.00" waitingTime="0.00" timeLoss="42.35" traveltime="175.00">
        <walk depart="64.50" departPos="100.00" arrival="239.50" arrivalPos="93.20" duration="175.00" routeLength="221.17" timeLoss="42.35" maxSpeed="1.67"/>
    </personinfo>
    <tripinfo id="SN_42" depart="196.00" departLane="3_1_2" departPos="5.10" departSpeed="0.00" departDelay="0.00" arrival="239.50" arrivalLane="1_5_1" arrivalPos="186.40" arrivalSpeed="12.03" duration="43.50" routeLength="395.15" waitingTime="0.00" waitingCount="0" stopTime="0.00" timeLoss="13.04" rerouteNo="0" devices="tripinfo_SN_42" vType="cars" speedFactor="1.04" vaporized=""/>
    <personinfo id="person_ES_diag.1" depart="59.42" type="DEFAULT_PEDTYPE" speedFactor="1.13" duration="180.50" waitingTime="0.00" timeLoss="38.07" traveltime="180.50">
        <walk depart="59.50" departPos="100.00" arrival="240.00" arrivalPos="93.20" duration="180.50" routeLength="223.30" timeLoss="38.07" maxSpeed="1.57"/>
    </personinfo>
    <tripinfo id="NS_32" depart="147.00" departLane="5_1_2" departPos="5.10" departSpeed="0.00" departDelay="0.00" arrival="240.00" arrivalLane="1_3_1" arrivalPos="186.40" arrivalSpeed="12.78" duration="93.00" routeLength="395.15" waitingTime="48.00" waitingCount="1" stopTime="0.00" timeLoss="62.35" rerouteNo="0" devices="tripinfo_NS_32" vType="cars" speedFactor="1.00" vaporized=""/>
    <personinfo id="person_ES_diag.0" depart="51.35" type="DEFAULT_PEDTYPE" speedFactor="1.15" duration="189.00" waitingTime="0.00" timeLoss="49.61" traveltime="189.00">
        <walk depart="51.50" departPos="100.00" arrival="240.50" arrivalPos="93.20" duration="189.00" routeLength="223.30" timeLoss="49.61" maxSpeed="1.60"/>
    </personinfo>
    <tripinfo id="SN_35" depart="156.00" departLane="3_1_2" departPos="5.10" departSpeed="0.00" departDelay="0.00" arrival="241.00" arrivalLane="1_5_1" arrivalPos="186.40" arrivalSpeed="12.85" duration="85.00" routeLength="395.15" waitingTime="37.00" waitingCount="1" stopTime="0.00" timeLoss="54.36" rerouteNo="0" devices="tripinfo_SN_35" vType="cars" speedFactor="1.06" vaporized=""/>
    <tripinfo id="NS_38" depart="163.00" departLane="5_1_2" departPos="5.10" departSpeed="0.00" departDelay="0.00" arrival="241.50" arrivalLane="1_3_2" arrivalPos="186.40" arrivalSpeed="12.12" duration="78.50" routeLength="395.15" waitingTime="33.50" waitingCount="1" stopTime="0.00" timeLoss="47.90" rerouteNo="0" devices="tripinfo_NS_38" vType="cars" speedFactor="0.93" vaporized=""/>
    <tripinfo id="SN_44" depart="198.50" departLane="3_1_2" departPos="5.10" departSpeed="0.00" departDelay="0.50" arrival="243.00" arrivalLane="1_5_2" arrivalPos="186.40" arrivalSpeed="12.87" duration="44.50" routeLength="395.15" waitingTime="0.00" waitingCount="0" stopTime="0.00" timeLoss="13.73" rerouteNo="0" devices="tripinfo_SN_44" vType="cars" speedFactor="1.00" vaporized=""/>
    <tripinfo id="SN_46" depart="202.00" departLane="3_1_2" departPos="5.10" departSpeed="0.00" departDelay="0.00" arrival="243.00" arrivalLane="1_5_1" arrivalPos="186.40" arrivalSpeed="12.36" duration="41.00" routeLength="395.15" waitingTime="0.00" waitingCount="0" stopTime="0.00" timeLoss="10.53" rerouteNo="0" devices="tripinfo_SN_46" vType="cars" speedFactor="1.02" vaporized=""/>
    <tripinfo id="NS_40" depart="188.00" departLane="5_1_2" departPos="5.10" departSpeed="0.00" departDelay="0.00" arrival="244.50" arrivalLane="1_3_1" arrivalPos="186.40" arrivalSpeed="11.61" duration="56.50" routeLength="395.15" waitingTime="8.50" waitingCount="1" stopTime="0.00" timeLoss="25.87" rerouteNo="0" devices="tripinfo_NS_40" vType="cars" speedFactor="1.05" vaporized=""/>
    <personinfo id="person_SW_diag.1" depart="60.77" type="DEFAULT_PEDTYPE" speedFactor="1.10" duration="186.00" waitingTime="0.00" timeLoss="33.79" traveltime="186.00">
        <walk depart="61.00" departPos="100.00" arrival="247.00" arrivalPos="93.20" duration="186.00" routeLength="233.56" timeLoss="33.79" maxSpeed="1.53"/>
    </personinfo>