<?xml version="1.0" encoding="UTF-8"?>

<!-- generated on 2024-09-10 19:59:24 by Eclipse SUMO GUI Version 1.20.0
<configuration xmlns:xsi="http://www.w3.org/2001/XMLSchema-instance" xsi:noNamespaceSchemaLocation="http://sumo.dlr.de/xsd/sumoConfiguration.xsd">

    <input>
        <net-file value="/home/naderian/Desktop/Shakiba/Shakiba97(Multiscale-Traffic-Control)/SourceCodes/environment/network_model/single_intersection_pedestrian_X.net.xml"/>
        <route-files value="/home/naderian/Desktop/Shakiba/Shakiba97(Multiscale-Traffic-Control)/SourceCodes/environment/network_model/single_intersection.rou.xml"/>
        <additional-files value="/home/naderian/Desktop/Shakiba/Shakiba97(Multiscale-Traffic-Control)/SourceCodes/environment/network_model/single_intersection.add.xml"/>
    </input>

    <output>
        <queue-output value="/home/naderian/Desktop/Shakiba/Shakiba97(Multiscale-Traffic-Control)/SourceCodes/environment/simulation_data/single_intersection/queues_multi_scale_symmetric_pene_100.xml"/>
        <tripinfo-output value="/home/naderian/Desktop/Shakiba/Shakiba97(Multiscale-Traffic-Control)/SourceCodes/environment/simulation_data/single_intersection/tripinfo_multi_scale_symmetric_pene_100.xml"/>
    </output>

    <time>
        <begin value="0"/>
        <step-length value="0.5"/>
    </time>

    <processing>
        <waiting-time-memory value="1000"/>
    </processing>

    <report>
        <verbose value="true"/>
        <no-step-log value="true"/>
    </report>

    <traci_server>
        <remote-port value="33645"/>
    </traci_server>

    <gui_only>
        <start value="true"/>
    </gui_only>

</configuration>
-->

<tripinfos xmlns:xsi="http://www.w3.org/2001/XMLSchema-instance" xsi:noNamespaceSchemaLocation="http://sumo.dlr.de/xsd/tripinfo_file.xsd">
    <tripinfo id="SN_0" depart="0.00" departLane="3_1_2" departPos="5.10" departSpeed="0.00" departDelay="0.00" arrival="35.00" arrivalLane="1_5_1" arrivalPos="186.40" arrivalSpeed="13.00" duration="35.00" routeLength="395.15" waitingTime="0.00" waitingCount="0" stopTime="0.00" timeLoss="4.21" rerouteNo="0" devices="tripinfo_SN_0" vType="cars" speedFactor="1.02" vaporized=""/>
    <tripinfo id="SN_2" depart="5.00" departLane="3_1_2" departPos="5.10" departSpeed="0.00" departDelay="0.00" arrival="40.50" arrivalLane="1_5_1" arrivalPos="186.40" arrivalSpeed="13.00" duration="35.50" routeLength="395.15" waitingTime="0.00" waitingCount="0" stopTime="0.00" timeLoss="4.90" rerouteNo="0" devices="tripinfo_SN_2" vType="cars" speedFactor="1.03" vaporized=""/>
    <tripinfo id="WE_0" depart="1.00" departLane="2_1_2" departPos="5.10" departSpeed="0.00" departDelay="0.00" arrival="50.00" arrivalLane="1_4_1" arrivalPos="186.40" arrivalSpeed="13.00" duration="49.00" routeLength="395.15" waitingTime="10.50" waitingCount="1" stopTime="0.00" timeLoss="18.55" rerouteNo="0" devices="tripinfo_WE_0" vType="cars" speedFactor="1.06" vaporized=""/>
    <tripinfo id="WE_1" depart="12.00" departLane="2_1_2" departPos="5.10" departSpeed="0.00" departDelay="0.00" arrival="50.00" arrivalLane="1_4_2" arrivalPos="186.40" arrivalSpeed="13.00" duration="38.00" routeLength="395.15" waitingTime="0.00" waitingCount="0" stopTime="0.00" timeLoss="7.26" rerouteNo="0" devices="tripinfo_WE_1" vType="cars" speedFactor="1.03" vaporized=""/>
    <tripinfo id="WS_3" depart="7.00" departLane="2_1_1" departPos="5.10" departSpeed="0.00" departDelay="0.00" arrival="51.50" arrivalLane="1_3_1" arrivalPos="186.40" arrivalSpeed="13.00" duration="44.50" routeLength="379.43" waitingTime="0.50" waitingCount="1" stopTime="0.00" timeLoss="14.02" rerouteNo="0" devices="tripinfo_WS_3" vType="cars" speedFactor="0.82" vaporized=""/>
    <tripinfo id="WS_6" depart="14.00" departLane="2_1_1" departPos="5.10" departSpeed="0.00" departDelay="0.00" arrival="53.50" arrivalLane="1_3_1" arrivalPos="186.40" arrivalSpeed="13.00" duration="39.50" routeLength="379.43" waitingTime="0.00" waitingCount="0" stopTime="0.00" timeLoss="9.31" rerouteNo="0" devices="tripinfo_WS_6" vType="cars" speedFactor="1.07" vaporized=""/>
    <tripinfo id="WN_7" depart="16.00" departLane="2_1_3" departPos="5.10" departSpeed="0.00" departDelay="0.00" arrival="56.00" arrivalLane="1_5_2" arrivalPos="186.40" arrivalSpeed="11.00" duration="40.00" routeLength="392.22" waitingTime="0.00" waitingCount="0" stopTime="0.00" timeLoss="9.22" rerouteNo="0" devices="tripinfo_WN_7" vType="cars" speedFactor="0.96" vaporized=""/>
    <tripinfo id="WE_2" depart="22.00" departLane="2_1_2" departPos="5.10" departSpeed="0.00" departDelay="0.00" arrival="57.50" arrivalLane="1_4_1" arrivalPos="186.40" arrivalSpeed="13.00" duration="35.50" routeLength="395.15" waitingTime="0.00" waitingCount="0" stopTime="0.00" timeLoss="4.97" rerouteNo="0" devices="tripinfo_WE_2" vType="cars" speedFactor="1.02" vaporized=""/>
    <tripinfo id="SE_4" depart="9.00" departLane="3_1_1" departPos="5.10" departSpeed="0.00" departDelay="0.00" arrival="66.50" arrivalLane="1_4_1" arrivalPos="186.40" arrivalSpeed="13.00" duration="57.50" routeLength="379.42" waitingTime="20.00" waitingCount="1" stopTime="0.00" timeLoss="27.40" rerouteNo="0" devices="tripinfo_SE_4" vType="cars" speedFactor="1.12" vaporized=""/>
    <tripinfo id="NS_1" depart="1.00" departLane="5_1_2" departPos="5.10" departSpeed="0.00" departDelay="0.00" arrival="67.00" arrivalLane="1_3_1" arrivalPos="186.40" arrivalSpeed="13.00" duration="66.00" routeLength="395.15" waitingTime="27.00" waitingCount="1" stopTime="0.00" timeLoss="35.55" rerouteNo="0" devices="tripinfo_NS_1" vType="cars" speedFactor="1.15" vaporized=""/>
    <tripinfo id="NS_5" depart="11.00" departLane="5_1_2" departPos="5.10" departSpeed="0.00" departDelay="0.00" arrival="67.00" arrivalLane="1_3_2" arrivalPos="186.40" arrivalSpeed="13.00" duration="56.00" routeLength="395.15" waitingTime="12.50" waitingCount="1" stopTime="0.00" timeLoss="25.55" rerouteNo="0" devices="tripinfo_NS_5" vType="cars" speedFactor="1.01" vaporized=""/>
    <tripinfo id="SN_9" depart="18.00" departLane="3_1_2" departPos="5.10" departSpeed="0.00" departDelay="0.00" arrival="67.00" arrivalLane="1_5_2" arrivalPos="186.40" arrivalSpeed="13.00" duration="49.00" routeLength="395.15" waitingTime="7.00" waitingCount="1" stopTime="0.00" timeLoss="18.55" rerouteNo="0" devices="tripinfo_SN_9" vType="cars" speedFactor="1.23" vaporized=""/>
    <tripinfo id="NS_8" depart="17.00" departLane="5_1_2" departPos="5.10" departSpeed="0.00" departDelay="0.00" arrival="68.50" arrivalLane="1_3_1" arrivalPos="186.40" arrivalSpeed="13.00" duration="51.50" routeLength="395.15" waitingTime="5.50" waitingCount="1" stopTime="0.00" timeLoss="21.09" rerouteNo="0" devices="tripinfo_NS_8" vType="cars" speedFactor="1.04" vaporized=""/>
    <tripinfo id="NS_11" depart="20.00" departLane="5_1_2" departPos="5.10" departSpeed="0.00" departDelay="0.00" arrival="68.50" arrivalLane="1_3_2" arrivalPos="186.40" arrivalSpeed="13.00" duration="48.50" routeLength="395.15" waitingTime="2.00" waitingCount="1" stopTime="0.00" timeLoss="18.09" rerouteNo="0" devices="tripinfo_NS_11" vType="cars" speedFactor="1.12" vaporized=""/>
    <tripinfo id="SN_15" depart="29.00" departLane="3_1_2" departPos="5.10" departSpeed="0.00" departDelay="0.00" arrival="68.50" arrivalLane="1_5_2" arrivalPos="186.40" arrivalSpeed="13.00" duration="39.50" routeLength="395.15" waitingTime="0.00" waitingCount="0" stopTime="0.00" timeLoss="9.09" rerouteNo="0" devices="tripinfo_SN_15" vType="cars" speedFactor="1.13" vaporized=""/>
    <tripinfo id="SN_12" depart="25.00" departLane="3_1_2" departPos="5.10" departSpeed="0.00" departDelay="0.00" arrival="69.00" arrivalLane="1_5_1" arrivalPos="186.40" arrivalSpeed="13.00" duration="44.00" routeLength="395.15" waitingTime="0.00" waitingCount="0" stopTime="0.00" timeLoss="13.13" rerouteNo="0" devices="tripinfo_SN_12" vType="cars" speedFactor="0.95" vaporized=""/>
    <tripinfo id="SN_17" depart="33.00" departLane="3_1_2" departPos="5.10" departSpeed="0.00" departDelay="0.00" arrival="70.50" arrivalLane="1_5_1" arrivalPos="186.40" arrivalSpeed="13.00" duration="37.50" routeLength="395.15" waitingTime="0.00" waitingCount="0" stopTime="0.00" timeLoss="6.80" rerouteNo="0" devices="tripinfo_SN_17" vType="cars" speedFactor="1.14" vaporized=""/>
    <tripinfo id="SN_18" depart="36.00" departLane="3_1_2" departPos="5.10" departSpeed="0.00" departDelay="0.00" arrival="71.50" arrivalLane="1_5_2" arrivalPos="186.40" arrivalSpeed="13.00" duration="35.50" routeLength="395.15" waitingTime="0.00" waitingCount="0" stopTime="0.00" timeLoss="4.93" rerouteNo="0" devices="tripinfo_SN_18" vType="cars" speedFactor="0.89" vaporized=""/>
    <tripinfo id="NS_14" depart="28.50" departLane="5_1_2" departPos="5.10" departSpeed="0.00" departDelay="1.50" arrival="73.50" arrivalLane="1_3_2" arrivalPos="186.40" arrivalSpeed="13.00" duration="45.00" routeLength="395.15" waitingTime="0.00" waitingCount="0" stopTime="0.00" timeLoss="14.24" rerouteNo="0" devices="tripinfo_NS_14" vType="cars" speedFactor="0.94" vaporized=""/>
    <tripinfo id="NS_16" depart="31.00" departLane="5_1_2" departPos="5.10" departSpeed="0.00" departDelay="1.00" arrival="74.00" arrivalLane="1_3_1" arrivalPos="186.40" arrivalSpeed="10.52" duration="43.00" routeLength="395.15" waitingTime="0.00" waitingCount="0" stopTime="0.00" timeLoss="12.26" rerouteNo="0" devices="tripinfo_NS_16" vType="cars" speedFactor="0.73" vaporized=""/>
    <tripinfo id="SE_19" depart="39.00" departLane="3_1_1" departPos="5.10" departSpeed="0.00" departDelay="0.00" arrival="74.00" arrivalLane="1_4_1" arrivalPos="186.40" arrivalSpeed="13.00" duration="35.00" routeLength="379.42" waitingTime="0.00" waitingCount="0" stopTime="0.00" timeLoss="5.08" rerouteNo="0" devices="tripinfo_SE_19" vType="cars" speedFactor="1.00" vaporized=""/>
    <tripinfo id="SN_20" depart="40.00" departLane="3_1_2" departPos="5.10" departSpeed="0.00" departDelay="0.00" arrival="76.00" arrivalLane="1_5_2" arrivalPos="186.40" arrivalSpeed="13.00" duration="36.00" routeLength="395.15" waitingTime="0.00" waitingCount="0" stopTime="0.00" timeLoss="5.12" rerouteNo="0" devices="tripinfo_SN_20" vType="cars" speedFactor="0.97" vaporized=""/>
    <tripinfo id="NS_13" depart="26.00" departLane="5_1_2" departPos="5.10" departSpeed="0.00" departDelay="0.00" arrival="76.50" arrivalLane="1_3_1" arrivalPos="186.40" arrivalSpeed="9.23" duration="50.50" routeLength="395.15" waitingTime="0.00" waitingCount="0" stopTime="0.00" timeLoss="20.07" rerouteNo="0" devices="tripinfo_NS_13" vType="cars" speedFactor="1.11" vaporized=""/>
    <tripinfo id="EN_10" depart="20.00" departLane="4_1_1" departPos="5.10" departSpeed="0.00" departDelay="0.00" arrival="83.50" arrivalLane="1_5_1" arrivalPos="186.40" arrivalSpeed="13.00" duration="63.50" routeLength="379.42" waitingTime="23.50" waitingCount="1" stopTime="0.00" timeLoss="33.28" rerouteNo="0" devices="tripinfo_EN_10" vType="cars" speedFactor="1.01" vaporized=""/>
    <tripinfo id="EW_0" depart="22.00" departLane="4_1_2" departPos="5.10" departSpeed="0.00" departDelay="0.00" arrival="84.00" arrivalLane="1_2_2" arrivalPos="186.40" arrivalSpeed="13.00" duration="62.00" routeLength="395.15" waitingTime="23.00" waitingCount="1" stopTime="0.00" timeLoss="31.55" rerouteNo="0" devices="tripinfo_EW_0" vType="cars" speedFactor="1.00" vaporized=""/>
    <tripinfo id="WE_3" depart="27.00" departLane="2_1_2" departPos="5.10" departSpeed="0.00" departDelay="0.00" arrival="84.00" arrivalLane="1_4_1" arrivalPos="186.40" arrivalSpeed="13.00" duration="57.00" routeLength="395.15" waitingTime="13.00" waitingCount="1" stopTime="0.00" timeLoss="26.55" rerouteNo="0" devices="tripinfo_WE_3" vType="cars" speedFactor="1.16" vaporized=""/>
    <tripinfo id="EW_1" depart="42.00" departLane="4_1_2" departPos="5.10" departSpeed="0.00" departDelay="0.00" arrival="85.50" arrivalLane="1_2_1" arrivalPos="186.40" arrivalSpeed="13.00" duration="43.50" routeLength="395.15" waitingTime="0.00" waitingCount="0" stopTime="0.00" timeLoss="12.90" rerouteNo="0" devices="tripinfo_EW_1" vType="cars" speedFactor="1.04" vaporized=""/>
    <tripinfo id="WE_4" depart="50.00" departLane="2_1_2" departPos="5.10" departSpeed="0.00" departDelay="0.00" arrival="86.00" arrivalLane="1_4_1" arrivalPos="186.40" arrivalSpeed="13.00" duration="36.00" routeLength="395.15" waitingTime="0.00" waitingCount="0" stopTime="0.00" timeLoss="5.37" rerouteNo="0" devices="tripinfo_WE_4" vType="cars" speedFactor="1.00" vaporized=""/>
    <tripinfo id="EW_2" depart="46.00" departLane="4_1_2" departPos="5.10" departSpeed="0.00" departDelay="0.00" arrival="92.00" arrivalLane="1_2_1" arrivalPos="186.40" arrivalSpeed="9.95" duration="46.00" routeLength="395.15" waitingTime="0.00" waitingCount="0" stopTime="0.00" timeLoss="15.40" rerouteNo="0" devices="tripinfo_EW_2" vType="cars" speedFactor="0.96" vaporized=""/>
    <tripinfo id="EW_3" depart="59.00" departLane="4_1_2" departPos="5.10" departSpeed="0.00" departDelay="0.00" arrival="95.50" arrivalLane="1_2_1" arrivalPos="186.40" arrivalSpeed="13.00" duration="36.50" routeLength="395.15" waitingTime="0.00" waitingCount="0" stopTime="0.00" timeLoss="5.94" rerouteNo="0" devices="tripinfo_EW_3" vType="cars" speedFactor="0.93" vaporized=""/>
    <tripinfo id="EW_4" depart="62.00" departLane="4_1_2" departPos="5.10" departSpeed="0.00" departDelay="0.00" arrival="98.50" arrivalLane="1_2_1" arrivalPos="186.40" arrivalSpeed="13.00" duration="36.50" routeLength="395.15" waitingTime="0.00" waitingCount="0" stopTime="0.00" timeLoss="5.67" rerouteNo="0" devices="tripinfo_EW_4" vType="cars" speedFactor="1.06" vaporized=""/>
    <tripinfo id="WE_5" depart="75.00" departLane="2_1_2" departPos="5.10" departSpeed="0.00" departDelay="0.00" arrival="110.00" arrivalLane="1_4_1" arrivalPos="186.40" arrivalSpeed="13.00" duration="35.00" routeLength="395.15" waitingTime="0.00" waitingCount="0" stopTime="0.00" timeLoss="4.31" rerouteNo="0" devices="tripinfo_WE_5" vType="cars" speedFactor="1.14" vaporized=""/>
    <tripinfo id="EW_5" depart="76.00" departLane="4_1_2" departPos="5.10" departSpeed="0.00" departDelay="0.00" arrival="111.50" arrivalLane="1_2_1" arrivalPos="186.40" arrivalSpeed="13.00" duration="35.50" routeLength="395.15" waitingTime="0.00" waitingCount="0" stopTime="0.00" timeLoss="4.72" rerouteNo="0" devices="tripinfo_EW_5" vType="cars" speedFactor="1.08" vaporized=""/>
    <tripinfo id="NW_21" depart="53.00" departLane="5_1_1" departPos="5.10" departSpeed="0.00" departDelay="0.00" arrival="120.00" arrivalLane="1_2_1" arrivalPos="186.40" arrivalSpeed="13.00" duration="67.00" routeLength="379.43" waitingTime="26.00" waitingCount="1" stopTime="0.00" timeLoss="37.34" rerouteNo="0" devices="tripinfo_NW_21" vType="cars" speedFactor="1.07" vaporized=""/>
    <tripinfo id="NS_22" depart="66.00" departLane="5_1_2" departPos="5.10" departSpeed="0.00" departDelay="0.00" arrival="121.00" arrivalLane="1_3_2" arrivalPos="186.40" arrivalSpeed="13.00" duration="55.00" routeLength="395.15" waitingTime="12.50" waitingCount="1" stopTime="0.00" timeLoss="24.55" rerouteNo="0" devices="tripinfo_NS_22" vType="cars" speedFactor="1.12" vaporized=""/>
    <tripinfo id="SN_25" depart="74.00" departLane="3_1_2" departPos="5.10" departSpeed="0.00" departDelay="0.00" arrival="121.00" arrivalLane="1_5_1" arrivalPos="186.40" arrivalSpeed="13.00" duration="47.00" routeLength="395.15" waitingTime="6.50" waitingCount="1" stopTime="0.00" timeLoss="16.55" rerouteNo="0" devices="tripinfo_SN_25" vType="cars" speedFactor="0.91" vaporized=""/>
    <tripinfo id="SN_28" depart="81.00" departLane="3_1_2" departPos="5.10" departSpeed="0.00" departDelay="0.00" arrival="121.00" arrivalLane="1_5_2" arrivalPos="186.40" arrivalSpeed="13.00" duration="40.00" routeLength="395.15" waitingTime="1.00" waitingCount="1" stopTime="0.00" timeLoss="9.55" rerouteNo="0" devices="tripinfo_SN_28" vType="cars" speedFactor="1.05" vaporized=""/>
    <tripinfo id="SE_27" depart="78.00" departLane="3_1_1" departPos="5.10" departSpeed="0.00" departDelay="0.00" arrival="121.50" arrivalLane="1_4_1" arrivalPos="186.40" arrivalSpeed="13.00" duration="43.50" routeLength="379.42" waitingTime="0.50" waitingCount="1" stopTime="0.00" timeLoss="13.86" rerouteNo="0" devices="tripinfo_SE_27" vType="cars" speedFactor="1.13" vaporized=""/>
    <tripinfo id="NW_23" depart="69.00" departLane="5_1_1" departPos="5.10" departSpeed="0.00" departDelay="0.00" arrival="122.00" arrivalLane="1_2_1" arrivalPos="186.40" arrivalSpeed="13.00" duration="53.00" routeLength="379.43" waitingTime="7.50" waitingCount="1" stopTime="0.00" timeLoss="22.95" rerouteNo="0" devices="tripinfo_NW_23" vType="cars" speedFactor="1.18" vaporized=""/>
    <tripinfo id="NS_26" depart="75.00" departLane="5_1_2" departPos="5.10" departSpeed="0.00" departDelay="0.00" arrival="122.50" arrivalLane="1_3_1" arrivalPos="186.40" arrivalSpeed="13.00" duration="47.50" routeLength="395.15" waitingTime="4.00" waitingCount="5" stopTime="0.00" timeLoss="17.05" rerouteNo="0" devices="tripinfo_NS_26" vType="cars" speedFactor="0.88" vaporized=""/>
    <tripinfo id="SN_30" depart="84.00" departLane="3_1_2" departPos="5.10" departSpeed="0.00" departDelay="1.00" arrival="122.50" arrivalLane="1_5_2" arrivalPos="186.40" arrivalSpeed="13.00" duration="38.50" routeLength="395.15" waitingTime="0.00" waitingCount="0" stopTime="0.00" timeLoss="8.09" rerouteNo="0" devices="tripinfo_SN_30" vType="cars" speedFactor="1.00" vaporized=""/>
    <tripinfo id="SN_31" depart="86.50" departLane="3_1_2" departPos="5.10" departSpeed="0.00" departDelay="2.50" arrival="124.50" arrivalLane="1_5_1" arrivalPos="186.40" arrivalSpeed="13.00" duration="38.00" routeLength="395.15" waitingTime="0.00" waitingCount="0" stopTime="0.00" timeLoss="7.39" rerouteNo="0" devices="tripinfo_SN_31" vType="cars" speedFactor="1.03" vaporized=""/>
    <tripinfo id="SN_33" depart="90.00" departLane="3_1_2" departPos="5.10" departSpeed="0.00" departDelay="0.00" arrival="125.50" arrivalLane="1_5_2" arrivalPos="186.40" arrivalSpeed="13.00" duration="35.50" routeLength="395.15" waitingTime="0.00" waitingCount="0" stopTime="0.00" timeLoss="5.05" rerouteNo="0" devices="tripinfo_SN_33" vType="cars" speedFactor="1.09" vaporized=""/>
    <tripinfo id="NS_29" depart="83.00" departLane="5_1_2" departPos="5.10" departSpeed="0.00" departDelay="0.00" arrival="129.50" arrivalLane="1_3_1" arrivalPos="186.40" arrivalSpeed="9.62" duration="46.50" routeLength="395.15" waitingTime="0.00" waitingCount="0" stopTime="0.00" timeLoss="16.09" rerouteNo="0" devices="tripinfo_NS_29" vType="cars" speedFactor="0.91" vaporized=""/>
    <tripinfo id="NS_32" depart="87.00" departLane="5_1_2" departPos="5.10" departSpeed="0.00" departDelay="0.00" arrival="131.00" arrivalLane="1_3_1" arrivalPos="186.40" arrivalSpeed="13.00" duration="44.00" routeLength="395.15" waitingTime="0.00" waitingCount="0" stopTime="0.00" timeLoss="13.46" rerouteNo="0" devices="tripinfo_NS_32" vType="cars" speedFactor="0.98" vaporized=""/>
    <tripinfo id="SN_34" depart="97.00" departLane="3_1_2" departPos="5.10" departSpeed="0.00" departDelay="0.00" arrival="133.50" arrivalLane="1_5_1" arrivalPos="186.40" arrivalSpeed="13.00" duration="36.50" routeLength="395.15" waitingTime="0.00" waitingCount="0" stopTime="0.00" timeLoss="5.84" rerouteNo="0" devices="tripinfo_SN_34" vType="cars" speedFactor="1.14" vaporized=""/>
    <tripinfo id="NW_36" depart="101.00" departLane="5_1_1" departPos="5.10" departSpeed="0.00" departDelay="0.00" arrival="139.50" arrivalLane="1_2_1" arrivalPos="186.40" arrivalSpeed="13.00" duration="38.50" routeLength="379.43" waitingTime="1.50" waitingCount="1" stopTime="0.00" timeLoss="7.83" rerouteNo="0" devices="tripinfo_NW_36" vType="cars" speedFactor="0.92" vaporized=""/>
    <tripinfo id="NS_37" depart="105.00" departLane="5_1_2" departPos="5.10" departSpeed="0.00" departDelay="0.00" arrival="140.50" arrivalLane="1_3_1" arrivalPos="186.40" arrivalSpeed="13.00" duration="35.50" routeLength="395.15" waitingTime="0.00" waitingCount="0" stopTime="0.00" timeLoss="4.72" rerouteNo="0" devices="tripinfo_NS_37" vType="cars" speedFactor="1.09" vaporized=""/>
    <tripinfo id="SN_38" depart="107.00" departLane="3_1_2" departPos="5.10" departSpeed="0.00" departDelay="0.00" arrival="142.00" arrivalLane="1_5_1" arrivalPos="186.40" arrivalSpeed="13.00" duration="35.00" routeLength="395.15" waitingTime="0.00" waitingCount="0" stopTime="0.00" timeLoss="4.53" rerouteNo="0" devices="tripinfo_SN_38" vType="cars" speedFactor="1.08" vaporized=""/>
    <tripinfo id="SN_40" depart="110.00" departLane="3_1_2" departPos="5.10" departSpeed="0.00" departDelay="0.00" arrival="145.50" arrivalLane="1_5_1" arrivalPos="186.40" arrivalSpeed="13.00" duration="35.50" routeLength="395.15" waitingTime="0.00" waitingCount="0" stopTime="0.00" timeLoss="4.90" rerouteNo="0" devices="tripinfo_SN_40" vType="cars" speedFactor="1.10" vaporized=""/>
    <tripinfo id="NS_41" depart="111.00" departLane="5_1_2" departPos="5.10" departSpeed="0.00" departDelay="0.00" arrival="146.50" arrivalLane="1_3_1" arrivalPos="186.40" arrivalSpeed="13.00" duration="35.50" routeLength="395.15" waitingTime="0.00" waitingCount="0" stopTime="0.00" timeLoss="4.86" rerouteNo="0" devices="tripinfo_NS_41" vType="cars" speedFactor="1.03" vaporized=""/>
    <tripinfo id="WE_6" depart="77.50" departLane="2_1_2" departPos="5.10" departSpeed="0.00" departDelay="0.50" arrival="163.00" arrivalLane="1_4_1" arrivalPos="186.40" arrivalSpeed="13.00" duration="85.50" routeLength="395.15" waitingTime="46.50" waitingCount="1" stopTime="0.00" timeLoss="55.05" rerouteNo="0" devices="tripinfo_WE_6" vType="cars" speedFactor="0.99" vaporized=""/>
    <tripinfo id="WE_7" depart="89.00" departLane="2_1_2" departPos="5.10" departSpeed="0.00" departDelay="0.00" arrival="163.00" arrivalLane="1_4_2" arrivalPos="186.40" arrivalSpeed="13.00" duration="74.00" routeLength="395.15" waitingTime="32.00" waitingCount="1" stopTime="0.00" timeLoss="43.55" rerouteNo="0" devices="tripinfo_WE_7" vType="cars" speedFactor="0.94" vaporized=""/>
    <tripinfo id="EW_6" depart="92.00" departLane="4_1_2" departPos="5.10" departSpeed="0.00" departDelay="0.00" arrival="163.00" arrivalLane="1_2_1" arrivalPos="186.40" arrivalSpeed="13.00" duration="71.00" routeLength="395.15" waitingTime="31.50" waitingCount="1" stopTime="0.00" timeLoss="40.55" rerouteNo="0" devices="tripinfo_EW_6" vType="cars" speedFactor="0.89" vaporized=""/>
    <tripinfo id="EW_7" depart="111.00" departLane="4_1_2" departPos="5.10" departSpeed="0.00" departDelay="0.00" arrival="163.00" arrivalLane="1_2_2" arrivalPos="186.40" arrivalSpeed="13.00" duration="52.00" routeLength="395.15" waitingTime="11.50" waitingCount="1" stopTime="0.00" timeLoss="21.55" rerouteNo="0" devices="tripinfo_EW_7" vType="cars" speedFactor="1.03" vaporized=""/>
    <tripinfo id="EN_39" depart="109.00" departLane="4_1_1" departPos="5.10" departSpeed="0.00" departDelay="0.00" arrival="164.00" arrivalLane="1_5_1" arrivalPos="186.40" arrivalSpeed="13.00" duration="55.00" routeLength="379.42" waitingTime="10.00" waitingCount="1" stopTime="0.00" timeLoss="24.85" rerouteNo="0" devices="tripinfo_EN_39" vType="cars" speedFactor="1.06" vaporized=""/>
    <tripinfo id="WE_8" depart="92.00" departLane="2_1_2" departPos="5.10" departSpeed="0.00" departDelay="0.00" arrival="164.50" arrivalLane="1_4_2" arrivalPos="186.40" arrivalSpeed="13.00" duration="72.50" routeLength="395.15" waitingTime="25.00" waitingCount="2" stopTime="0.00" timeLoss="42.09" rerouteNo="0" devices="tripinfo_WE_8" vType="cars" speedFactor="0.90" vaporized=""/>
    <tripinfo id="WE_9" depart="106.00" departLane="2_1_2" departPos="5.10" departSpeed="0.00" departDelay="0.00" arrival="164.50" arrivalLane="1_4_1" arrivalPos="186.40" arrivalSpeed="13.00" duration="58.50" routeLength="395.15" waitingTime="7.50" waitingCount="5" stopTime="0.00" timeLoss="28.09" rerouteNo="0" devices="tripinfo_WE_9" vType="cars" speedFactor="1.03" vaporized=""/>
    <tripinfo id="EW_8" depart="123.00" departLane="4_1_2" departPos="5.10" departSpeed="0.00" departDelay="0.00" arrival="164.50" arrivalLane="1_2_1" arrivalPos="186.40" arrivalSpeed="13.00" duration="41.50" routeLength="395.15" waitingTime="0.00" waitingCount="0" stopTime="0.00" timeLoss="11.09" rerouteNo="0" devices="tripinfo_EW_8" vType="cars" speedFactor="0.90" vaporized=""/>
    <tripinfo id="EW_9" depart="128.00" departLane="4_1_2" departPos="5.10" departSpeed="0.00" departDelay="0.00" arrival="169.00" arrivalLane="1_2_1" arrivalPos="186.40" arrivalSpeed="11.00" duration="41.00" routeLength="395.15" waitingTime="0.00" waitingCount="0" stopTime="0.00" timeLoss="10.52" rerouteNo="0" devices="tripinfo_EW_9" vType="cars" speedFactor="1.10" vaporized=""/>
    <tripinfo id="WE_11" depart="118.50" departLane="2_1_2" departPos="5.10" departSpeed="0.00" departDelay="1.50" arrival="170.50" arrivalLane="1_4_1" arrivalPos="186.40" arrivalSpeed="10.08" duration="52.00" routeLength="395.15" waitingTime="1.00" waitingCount="2" stopTime="0.00" timeLoss="21.57" rerouteNo="0" devices="tripinfo_WE_11" vType="cars" speedFactor="0.94" vaporized=""/>
    <tripinfo id="WE_14" depart="127.00" departLane="2_1_2" departPos="5.10" departSpeed="0.00" departDelay="5.00" arrival="172.00" arrivalLane="1_4_1" arrivalPos="186.40" arrivalSpeed="13.00" duration="45.00" routeLength="395.15" waitingTime="0.00" waitingCount="0" stopTime="0.00" timeLoss="14.44" rerouteNo="0" devices="tripinfo_WE_14" vType="cars" speedFactor="0.89" vaporized=""/>
    <tripinfo id="WE_10" depart="116.00" departLane="2_1_2" departPos="5.10" departSpeed="0.00" departDelay="0.00" arrival="173.00" arrivalLane="1_4_2" arrivalPos="186.40" arrivalSpeed="9.12" duration="57.00" routeLength="395.15" waitingTime="5.00" waitingCount="4" stopTime="0.00" timeLoss="26.43" rerouteNo="0" devices="tripinfo_WE_10" vType="cars" speedFactor="1.08" vaporized=""/>
    <tripinfo id="WE_13" depart="123.50" departLane="2_1_2" departPos="5.10" departSpeed="0.00" departDelay="4.50" arrival="173.50" arrivalLane="1_4_1" arrivalPos="186.40" arrivalSpeed="13.00" duration="50.00" routeLength="395.15" waitingTime="0.00" waitingCount="0" stopTime="0.00" timeLoss="19.40" rerouteNo="0" devices="tripinfo_WE_13" vType="cars" speedFactor="1.08" vaporized=""/>
    <tripinfo id="WE_12" depart="121.00" departLane="2_1_2" departPos="5.10" departSpeed="0.00" departDelay="3.00" arrival="174.50" arrivalLane="1_4_2" arrivalPos="186.40" arrivalSpeed="13.00" duration="53.50" routeLength="395.15" waitingTime="1.00" waitingCount="2" stopTime="0.00" timeLoss="22.79" rerouteNo="0" devices="tripinfo_WE_12" vType="cars" speedFactor="0.92" vaporized=""/>
    <tripinfo id="WS_48" depart="134.00" departLane="2_1_1" departPos="5.10" departSpeed="0.00" departDelay="0.00" arrival="174.50" arrivalLane="1_3_1" arrivalPos="186.40" arrivalSpeed="10.49" duration="40.50" routeLength="379.43" waitingTime="0.00" waitingCount="0" stopTime="0.00" timeLoss="10.19" rerouteNo="0" devices="tripinfo_WS_48" vType="cars" speedFactor="0.87" vaporized=""/>
    <tripinfo id="WE_15" depart="129.50" departLane="2_1_2" departPos="5.10" departSpeed="0.00" departDelay="4.50" arrival="176.00" arrivalLane="1_4_2" arrivalPos="186.40" arrivalSpeed="13.00" duration="46.50" routeLength="395.15" waitingTime="0.00" waitingCount="0" stopTime="0.00" timeLoss="15.71" rerouteNo="0" devices="tripinfo_WE_15" vType="cars" speedFactor="0.93" vaporized=""/>
    <tripinfo id="NS_42" depart="122.00" departLane="5_1_2" departPos="5.10" departSpeed="0.00" departDelay="0.00" arrival="180.00" arrivalLane="1_3_1" arrivalPos="186.40" arrivalSpeed="13.00" duration="58.00" routeLength="395.15" waitingTime="18.50" waitingCount="1" stopTime="0.00" timeLoss="27.55" rerouteNo="0" devices="tripinfo_NS_42" vType="cars" speedFactor="0.97" vaporized=""/>
    <tripinfo id="SN_45" depart="128.00" departLane="3_1_2" departPos="5.10" departSpeed="0.00" departDelay="0.00" arrival="180.00" arrivalLane="1_5_1" arrivalPos="186.40" arrivalSpeed="13.00" duration="52.00" routeLength="395.15" waitingTime="11.50" waitingCount="1" stopTime="0.00" timeLoss="21.55" rerouteNo="0" devices="tripinfo_SN_45" vType="cars" speedFactor="1.00" vaporized=""/>
    <tripinfo id="SN_47" depart="132.00" departLane="3_1_2" departPos="5.10" departSpeed="0.00" departDelay="0.00" arrival="180.00" arrivalLane="1_5_2" arrivalPos="186.40" arrivalSpeed="13.00" duration="48.00" routeLength="395.15" waitingTime="6.50" waitingCount="1" stopTime="0.00" timeLoss="17.55" rerouteNo="0" devices="tripinfo_SN_47" vType="cars" speedFactor="1.03" vaporized=""/>
    <tripinfo id="NS_49" depart="134.00" departLane="5_1_2" departPos="5.10" departSpeed="0.00" departDelay="0.00" arrival="180.00" arrivalLane="1_3_2" arrivalPos="186.40" arrivalSpeed="13.00" duration="46.00" routeLength="395.15" waitingTime="6.00" waitingCount="1" stopTime="0.00" timeLoss="15.55" rerouteNo="0" devices="tripinfo_NS_49" vType="cars" speedFactor="1.06" vaporized=""/>
    <personinfo id="person_WE_s.0" depart="7.69" type="DEFAULT_PEDTYPE" speedFactor="0.98" duration="172.50" waitingTime="0.00" timeLoss="9.21" traveltime="172.50">
        <walk depart="8.00" departPos="100.00" arrival="180.50" arrivalPos="93.20" duration="172.50" routeLength="221.17" timeLoss="9.21" maxSpeed="1.35"/>
    </personinfo>
    <personinfo id="person_SN_e.0" depart="38.44" type="DEFAULT_PEDTYPE" speedFactor="1.19" duration="143.00" waitingTime="0.00" timeLoss="8.96" traveltime="143.00">
        <walk depart="38.50" departPos="100.00" arrival="181.50" arrivalPos="93.20" duration="143.00" routeLength="221.24" timeLoss="8.96" maxSpeed="1.65"/>
    </personinfo>