<?xml version="1.0" encoding="UTF-8"?>

<!-- generated on 2025-02-24 11:52:55 by Eclipse SUMO GUI Version 1.16.0
<configuration xmlns:xsi="http://www.w3.org/2001/XMLSchema-instance" xsi:noNamespaceSchemaLocation="http://sumo.dlr.de/xsd/sumoConfiguration.xsd">

    <input>
        <net-file value="/Users/shakibanaderian/Desktop/Multimodal SVCC project/untitled folder/CET-593-MMSVCC/environment/network_model/single_intersection_pedestrian_X.net.xml"/>
        <route-files value="/Users/shakibanaderian/Desktop/Multimodal SVCC project/untitled folder/CET-593-MMSVCC/environment/network_model/single_intersection.rou.xml"/>
        <additional-files value="/Users/shakibanaderian/Desktop/Multimodal SVCC project/untitled folder/CET-593-MMSVCC/environment/network_model/single_intersection.add.xml"/>
    </input>

    <output>
        <queue-output value="/Users/shakibanaderian/Desktop/Multimodal SVCC project/untitled folder/CET-593-MMSVCC/environment/simulation_data/single_intersection/queues_multi_scale_symmetric_pene_100.xml"/>
        <tripinfo-output value="/Users/shakibanaderian/Desktop/Multimodal SVCC project/untitled folder/CET-593-MMSVCC/environment/simulation_data/single_intersection/tripinfo_multi_scale_symmetric_pene_100.xml"/>
    </output>

    <time>
        <begin value="0"/>
        <step-length value="0.5"/>
    </time>

    <processing>
        <waiting-time-memory value="1000"/>
    </processing>

    <report>
        <verbose value="true"/>
        <no-step-log value="true"/>
    </report>

    <traci_server>
        <remote-port value="61611"/>
    </traci_server>

    <gui_only>
        <start value="true"/>
    </gui_only>

</configuration>
-->

<tripinfos xmlns:xsi="http://www.w3.org/2001/XMLSchema-instance" xsi:noNamespaceSchemaLocation="http://sumo.dlr.de/xsd/tripinfo_file.xsd">
    <tripinfo id="SN_0" depart="0.00" departLane="3_1_2" departPos="5.10" departSpeed="0.00" departDelay="0.00" arrival="35.00" arrivalLane="1_5_1" arrivalPos="186.40" arrivalSpeed="13.00" duration="35.00" routeLength="395.15" waitingTime="0.00" waitingCount="0" stopTime="0.00" timeLoss="4.21" rerouteNo="0" devices="tripinfo_SN_0" vType="cars" speedFactor="1.13" vaporized=""/>
    <tripinfo id="NS_1" depart="1.00" departLane="5_1_2" departPos="5.10" departSpeed="0.00" departDelay="0.00" arrival="37.00" arrivalLane="1_3_1" arrivalPos="186.40" arrivalSpeed="13.00" duration="36.00" routeLength="395.15" waitingTime="0.00" waitingCount="0" stopTime="0.00" timeLoss="5.41" rerouteNo="0" devices="tripinfo_NS_1" vType="cars" speedFactor="0.96" vaporized=""/>
    <tripinfo id="SN_2" depart="5.00" departLane="3_1_2" departPos="5.10" departSpeed="0.00" departDelay="0.00" arrival="40.50" arrivalLane="1_5_1" arrivalPos="186.40" arrivalSpeed="13.00" duration="35.50" routeLength="395.15" waitingTime="0.00" waitingCount="0" stopTime="0.00" timeLoss="4.90" rerouteNo="0" devices="tripinfo_SN_2" vType="cars" speedFactor="1.13" vaporized=""/>
    <tripinfo id="WE_0" depart="1.00" departLane="2_1_2" departPos="5.10" departSpeed="0.00" departDelay="0.00" arrival="50.00" arrivalLane="1_4_1" arrivalPos="186.40" arrivalSpeed="13.00" duration="49.00" routeLength="395.15" waitingTime="10.50" waitingCount="1" stopTime="0.00" timeLoss="18.55" rerouteNo="0" devices="tripinfo_WE_0" vType="cars" speedFactor="1.04" vaporized=""/>
    <tripinfo id="WE_1" depart="10.00" departLane="2_1_2" departPos="5.10" departSpeed="0.00" departDelay="0.00" arrival="50.00" arrivalLane="1_4_2" arrivalPos="186.40" arrivalSpeed="13.00" duration="40.00" routeLength="395.15" waitingTime="1.50" waitingCount="1" stopTime="0.00" timeLoss="9.55" rerouteNo="0" devices="tripinfo_WE_1" vType="cars" speedFactor="0.98" vaporized=""/>
    <tripinfo id="WS_3" depart="7.00" departLane="2_1_1" departPos="5.10" departSpeed="0.00" departDelay="0.00" arrival="51.00" arrivalLane="1_3_1" arrivalPos="186.40" arrivalSpeed="13.00" duration="44.00" routeLength="379.43" waitingTime="0.00" waitingCount="0" stopTime="0.00" timeLoss="13.83" rerouteNo="0" devices="tripinfo_WS_3" vType="cars" speedFactor="0.96" vaporized=""/>
    <tripinfo id="WE_2" depart="12.50" departLane="2_1_2" departPos="5.10" departSpeed="0.00" departDelay="0.50" arrival="51.50" arrivalLane="1_4_1" arrivalPos="186.40" arrivalSpeed="13.00" duration="39.00" routeLength="395.15" waitingTime="0.00" waitingCount="0" stopTime="0.00" timeLoss="8.59" rerouteNo="0" devices="tripinfo_WE_2" vType="cars" speedFactor="0.92" vaporized=""/>
    <tripinfo id="EW_0" depart="19.00" departLane="4_1_2" departPos="5.10" departSpeed="0.00" departDelay="0.00" arrival="54.00" arrivalLane="1_2_1" arrivalPos="186.40" arrivalSpeed="13.00" duration="35.00" routeLength="395.15" waitingTime="0.00" waitingCount="0" stopTime="0.00" timeLoss="4.39" rerouteNo="0" devices="tripinfo_EW_0" vType="cars" speedFactor="1.26" vaporized=""/>
    <tripinfo id="EW_1" depart="21.50" departLane="4_1_2" departPos="5.10" departSpeed="0.00" departDelay="0.50" arrival="57.00" arrivalLane="1_2_1" arrivalPos="186.40" arrivalSpeed="13.00" duration="35.50" routeLength="395.15" waitingTime="0.00" waitingCount="0" stopTime="0.00" timeLoss="4.93" rerouteNo="0" devices="tripinfo_EW_1" vType="cars" speedFactor="0.97" vaporized=""/>
    <tripinfo id="ES_4" depart="14.00" departLane="4_1_3" departPos="5.10" departSpeed="0.00" departDelay="0.00" arrival="68.00" arrivalLane="1_3_2" arrivalPos="186.40" arrivalSpeed="13.00" duration="54.00" routeLength="392.22" waitingTime="11.50" waitingCount="1" stopTime="0.00" timeLoss="22.82" rerouteNo="0" devices="tripinfo_ES_4" vType="cars" speedFactor="0.96" vaporized=""/>
    <tripinfo id="ES_6" depart="31.00" departLane="4_1_3" departPos="5.10" departSpeed="0.00" departDelay="0.00" arrival="69.50" arrivalLane="1_3_2" arrivalPos="186.40" arrivalSpeed="13.00" duration="38.50" routeLength="392.22" waitingTime="0.00" waitingCount="0" stopTime="0.00" timeLoss="7.96" rerouteNo="0" devices="tripinfo_ES_6" vType="cars" speedFactor="1.05" vaporized=""/>
    <tripinfo id="NS_5" depart="22.00" departLane="5_1_2" departPos="5.10" departSpeed="0.00" departDelay="0.00" arrival="79.00" arrivalLane="1_3_1" arrivalPos="186.40" arrivalSpeed="13.00" duration="57.00" routeLength="395.15" waitingTime="18.00" waitingCount="1" stopTime="0.00" timeLoss="26.55" rerouteNo="0" devices="tripinfo_NS_5" vType="cars" speedFactor="0.87" vaporized=""/>
    <tripinfo id="NW_7" depart="37.00" departLane="5_1_1" departPos="5.10" departSpeed="0.00" departDelay="0.00" arrival="80.00" arrivalLane="1_2_1" arrivalPos="186.40" arrivalSpeed="13.00" duration="43.00" routeLength="379.43" waitingTime="0.00" waitingCount="0" stopTime="0.00" timeLoss="12.82" rerouteNo="0" devices="tripinfo_NW_7" vType="cars" speedFactor="0.98" vaporized=""/>
    <tripinfo id="SN_10" depart="48.00" departLane="3_1_2" departPos="5.10" departSpeed="0.00" departDelay="0.00" arrival="83.00" arrivalLane="1_5_1" arrivalPos="186.40" arrivalSpeed="13.00" duration="35.00" routeLength="395.15" waitingTime="0.00" waitingCount="0" stopTime="0.00" timeLoss="4.32" rerouteNo="0" devices="tripinfo_SN_10" vType="cars" speedFactor="0.99" vaporized=""/>
    <tripinfo id="NW_9" depart="41.00" departLane="5_1_1" departPos="5.10" departSpeed="0.00" departDelay="0.00" arrival="88.00" arrivalLane="1_2_1" arrivalPos="186.40" arrivalSpeed="8.99" duration="47.00" routeLength="379.43" waitingTime="0.00" waitingCount="0" stopTime="0.00" timeLoss="16.84" rerouteNo="0" devices="tripinfo_NW_9" vType="cars" speedFactor="0.97" vaporized=""/>
    <tripinfo id="WE_3" depart="43.00" departLane="2_1_2" departPos="5.10" departSpeed="0.00" departDelay="0.00" arrival="96.00" arrivalLane="1_4_1" arrivalPos="186.40" arrivalSpeed="13.00" duration="53.00" routeLength="395.15" waitingTime="11.50" waitingCount="1" stopTime="0.00" timeLoss="22.55" rerouteNo="0" devices="tripinfo_WE_3" vType="cars" speedFactor="0.87" vaporized=""/>
    <tripinfo id="EW_2" depart="46.00" departLane="4_1_2" departPos="5.10" departSpeed="0.00" departDelay="0.00" arrival="96.00" arrivalLane="1_2_1" arrivalPos="186.40" arrivalSpeed="13.00" duration="50.00" routeLength="395.15" waitingTime="10.50" waitingCount="1" stopTime="0.00" timeLoss="19.55" rerouteNo="0" devices="tripinfo_EW_2" vType="cars" speedFactor="1.21" vaporized=""/>
    <tripinfo id="WE_4" depart="67.00" departLane="2_1_2" departPos="5.10" departSpeed="0.00" departDelay="0.00" arrival="103.00" arrivalLane="1_4_1" arrivalPos="186.40" arrivalSpeed="13.00" duration="36.00" routeLength="395.15" waitingTime="0.00" waitingCount="0" stopTime="0.00" timeLoss="5.17" rerouteNo="0" devices="tripinfo_WE_4" vType="cars" speedFactor="0.97" vaporized=""/>
    <tripinfo id="EW_3" depart="68.00" departLane="4_1_2" departPos="5.10" departSpeed="0.00" departDelay="0.00" arrival="103.50" arrivalLane="1_2_1" arrivalPos="186.40" arrivalSpeed="13.00" duration="35.50" routeLength="395.15" waitingTime="0.00" waitingCount="0" stopTime="0.00" timeLoss="4.78" rerouteNo="0" devices="tripinfo_EW_3" vType="cars" speedFactor="0.99" vaporized=""/>
    <tripinfo id="WE_5" depart="86.00" departLane="2_1_2" departPos="5.10" departSpeed="0.00" departDelay="0.00" arrival="121.50" arrivalLane="1_4_1" arrivalPos="186.40" arrivalSpeed="13.00" duration="35.50" routeLength="395.15" waitingTime="0.00" waitingCount="0" stopTime="0.00" timeLoss="4.78" rerouteNo="0" devices="tripinfo_WE_5" vType="cars" speedFactor="0.76" vaporized=""/>
    <tripinfo id="WE_6" depart="88.50" departLane="2_1_2" departPos="5.10" departSpeed="0.00" departDelay="1.50" arrival="125.50" arrivalLane="1_4_1" arrivalPos="186.40" arrivalSpeed="13.00" duration="37.00" routeLength="395.15" waitingTime="0.00" waitingCount="0" stopTime="0.00" timeLoss="6.45" rerouteNo="0" devices="tripinfo_WE_6" vType="cars" speedFactor="1.04" vaporized=""/>
    <tripinfo id="SN_14" depart="90.00" departLane="3_1_2" departPos="5.10" departSpeed="0.00" departDelay="0.00" arrival="133.00" arrivalLane="1_5_1" arrivalPos="186.40" arrivalSpeed="13.00" duration="43.00" routeLength="395.15" waitingTime="5.00" waitingCount="1" stopTime="0.00" timeLoss="12.55" rerouteNo="0" devices="tripinfo_SN_14" vType="cars" speedFactor="0.98" vaporized=""/>
    <tripinfo id="SW_8" depart="40.00" departLane="3_1_3" departPos="5.10" departSpeed="0.00" departDelay="0.00" arrival="134.00" arrivalLane="1_2_2" arrivalPos="186.40" arrivalSpeed="13.00" duration="94.00" routeLength="392.22" waitingTime="49.50" waitingCount="1" stopTime="0.00" timeLoss="62.54" rerouteNo="0" devices="tripinfo_SW_8" vType="cars" speedFactor="0.85" vaporized=""/>
    <tripinfo id="SN_11" depart="70.00" departLane="3_1_2" departPos="5.10" departSpeed="0.00" departDelay="0.00" arrival="134.50" arrivalLane="1_5_1" arrivalPos="186.40" arrivalSpeed="13.00" duration="64.50" routeLength="395.15" waitingTime="27.00" waitingCount="1" stopTime="0.00" timeLoss="34.09" rerouteNo="0" devices="tripinfo_SN_11" vType="cars" speedFactor="1.08" vaporized=""/>
    <tripinfo id="SN_16" depart="93.00" departLane="3_1_2" departPos="5.10" departSpeed="0.00" departDelay="0.00" arrival="134.50" arrivalLane="1_5_2" arrivalPos="186.40" arrivalSpeed="13.00" duration="41.50" routeLength="395.15" waitingTime="0.00" waitingCount="0" stopTime="0.00" timeLoss="10.89" rerouteNo="0" devices="tripinfo_SN_16" vType="cars" speedFactor="1.10" vaporized=""/>
    <tripinfo id="SW_17" depart="93.00" departLane="3_1_3" departPos="5.10" departSpeed="0.00" departDelay="0.00" arrival="136.00" arrivalLane="1_2_2" arrivalPos="186.40" arrivalSpeed="13.00" duration="43.00" routeLength="392.22" waitingTime="0.00" waitingCount="0" stopTime="0.00" timeLoss="12.27" rerouteNo="0" devices="tripinfo_SW_17" vType="cars" speedFactor="1.19" vaporized=""/>
    <tripinfo id="SE_19" depart="100.00" departLane="3_1_1" departPos="5.10" departSpeed="0.00" departDelay="0.00" arrival="145.50" arrivalLane="1_4_1" arrivalPos="186.40" arrivalSpeed="13.00" duration="45.50" routeLength="379.42" waitingTime="7.00" waitingCount="1" stopTime="0.00" timeLoss="15.09" rerouteNo="0" devices="tripinfo_SE_19" vType="cars" speedFactor="0.97" vaporized=""/>
    <tripinfo id="SN_20" depart="109.00" departLane="3_1_2" departPos="5.10" departSpeed="0.00" departDelay="0.00" arrival="145.50" arrivalLane="1_5_2" arrivalPos="186.40" arrivalSpeed="13.00" duration="36.50" routeLength="395.15" waitingTime="0.00" waitingCount="0" stopTime="0.00" timeLoss="5.95" rerouteNo="0" devices="tripinfo_SN_20" vType="cars" speedFactor="1.09" vaporized=""/>
    <tripinfo id="EW_5" depart="125.50" departLane="4_1_2" departPos="5.10" departSpeed="0.00" departDelay="0.50" arrival="162.50" arrivalLane="1_2_1" arrivalPos="186.40" arrivalSpeed="13.00" duration="37.00" routeLength="395.15" waitingTime="0.00" waitingCount="0" stopTime="0.00" timeLoss="6.38" rerouteNo="0" devices="tripinfo_EW_5" vType="cars" speedFactor="0.98" vaporized=""/>
    <tripinfo id="WE_7" depart="125.00" departLane="2_1_2" departPos="5.10" departSpeed="0.00" departDelay="0.00" arrival="163.50" arrivalLane="1_4_2" arrivalPos="186.40" arrivalSpeed="13.00" duration="38.50" routeLength="395.15" waitingTime="0.00" waitingCount="0" stopTime="0.00" timeLoss="7.93" rerouteNo="0" devices="tripinfo_WE_7" vType="cars" speedFactor="1.10" vaporized=""/>
    <tripinfo id="EW_4" depart="123.00" departLane="4_1_2" departPos="5.10" departSpeed="0.00" departDelay="0.00" arrival="165.00" arrivalLane="1_2_2" arrivalPos="186.40" arrivalSpeed="13.00" duration="42.00" routeLength="395.15" waitingTime="0.00" waitingCount="0" stopTime="0.00" timeLoss="11.35" rerouteNo="0" devices="tripinfo_EW_4" vType="cars" speedFactor="0.96" vaporized=""/>
    <tripinfo id="WE_8" depart="134.00" departLane="2_1_2" departPos="5.10" departSpeed="0.00" departDelay="0.00" arrival="169.00" arrivalLane="1_4_2" arrivalPos="186.40" arrivalSpeed="13.00" duration="35.00" routeLength="395.15" waitingTime="0.00" waitingCount="0" stopTime="0.00" timeLoss="4.42" rerouteNo="0" devices="tripinfo_WE_8" vType="cars" speedFactor="1.04" vaporized=""/>
    <tripinfo id="EN_21" depart="111.00" departLane="4_1_1" departPos="5.10" departSpeed="0.00" departDelay="0.00" arrival="170.00" arrivalLane="1_5_1" arrivalPos="186.40" arrivalSpeed="13.00" duration="59.00" routeLength="379.42" waitingTime="19.00" waitingCount="2" stopTime="0.00" timeLoss="28.91" rerouteNo="0" devices="tripinfo_EN_21" vType="cars" speedFactor="1.14" vaporized=""/>
    <tripinfo id="WS_23" depart="125.00" departLane="2_1_1" departPos="5.10" departSpeed="0.00" departDelay="0.00" arrival="171.50" arrivalLane="1_3_1" arrivalPos="186.40" arrivalSpeed="13.00" duration="46.50" routeLength="379.43" waitingTime="7.00" waitingCount="1" stopTime="0.00" timeLoss="16.12" rerouteNo="0" devices="tripinfo_WS_23" vType="cars" speedFactor="0.98" vaporized=""/>
    <tripinfo id="EW_6" depart="137.00" departLane="4_1_2" departPos="5.10" departSpeed="0.00" departDelay="0.00" arrival="173.50" arrivalLane="1_2_1" arrivalPos="186.40" arrivalSpeed="13.00" duration="36.50" routeLength="395.15" waitingTime="0.00" waitingCount="0" stopTime="0.00" timeLoss="5.99" rerouteNo="0" devices="tripinfo_EW_6" vType="cars" speedFactor="0.96" vaporized=""/>
    <tripinfo id="EN_29" depart="137.00" departLane="4_1_1" departPos="5.10" departSpeed="0.00" departDelay="0.00" arrival="173.50" arrivalLane="1_5_1" arrivalPos="186.40" arrivalSpeed="13.00" duration="36.50" routeLength="379.42" waitingTime="0.00" waitingCount="0" stopTime="0.00" timeLoss="6.54" rerouteNo="0" devices="tripinfo_EN_29" vType="cars" speedFactor="1.06" vaporized=""/>
    <personinfo id="person_WE_s.0" depart="1.92" type="DEFAULT_PEDTYPE" speedFactor="0.98">
        <walk depart="2.00" departPos="100.00" arrival="176.00" arrivalPos="93.20" duration="174.00" routeLength="221.17" timeLoss="10.71" maxSpeed="1.35"/>
    </personinfo>
    <personinfo id="person_EW_n.1" depart="33.88" type="DEFAULT_PEDTYPE" speedFactor="1.17">
        <walk depart="34.00" departPos="100.00" arrival="180.00" arrivalPos="93.20" duration="146.00" routeLength="221.32" timeLoss="10.02" maxSpeed="1.63"/>
    </personinfo>
    <tripinfo id="NS_12" depart="80.00" departLane="5_1_2" departPos="5.10" departSpeed="0.00" departDelay="0.00" arrival="187.00" arrivalLane="1_3_1" arrivalPos="186.40" arrivalSpeed="13.00" duration="107.00" routeLength="395.15" waitingTime="67.50" waitingCount="1" stopTime="0.00" timeLoss="76.55" rerouteNo="0" devices="tripinfo_NS_12" vType="cars" speedFactor="0.95" vaporized=""/>
    <tripinfo id="NS_15" depart="92.00" departLane="5_1_2" departPos="5.10" departSpeed="0.00" departDelay="0.00" arrival="187.00" arrivalLane="1_3_2" arrivalPos="186.40" arrivalSpeed="13.00" duration="95.00" routeLength="395.15" waitingTime="50.00" waitingCount="1" stopTime="0.00" timeLoss="64.55" rerouteNo="0" devices="tripinfo_NS_15" vType="cars" speedFactor="0.89" vaporized=""/>
    <tripinfo id="SN_25" depart="126.00" departLane="3_1_2" departPos="5.10" departSpeed="0.00" departDelay="0.00" arrival="188.00" arrivalLane="1_5_1" arrivalPos="186.40" arrivalSpeed="13.00" duration="62.00" routeLength="395.15" waitingTime="21.50" waitingCount="1" stopTime="0.00" timeLoss="31.52" rerouteNo="0" devices="tripinfo_SN_25" vType="cars" speedFactor="1.07" vaporized=""/>
    <tripinfo id="SN_27" depart="130.00" departLane="3_1_2" departPos="5.10" departSpeed="0.00" departDelay="0.00" arrival="188.00" arrivalLane="1_5_2" arrivalPos="186.40" arrivalSpeed="13.00" duration="58.00" routeLength="395.15" waitingTime="13.00" waitingCount="1" stopTime="0.00" timeLoss="27.52" rerouteNo="0" devices="tripinfo_SN_27" vType="cars" speedFactor="0.98" vaporized=""/>
    <tripinfo id="NS_18" depart="99.00" departLane="5_1_2" departPos="5.10" departSpeed="0.00" departDelay="0.00" arrival="188.50" arrivalLane="1_3_1" arrivalPos="186.40" arrivalSpeed="13.00" duration="89.50" routeLength="395.15" waitingTime="43.50" waitingCount="1" stopTime="0.00" timeLoss="59.09" rerouteNo="0" devices="tripinfo_NS_18" vType="cars" speedFactor="0.97" vaporized=""/>
    <tripinfo id="NS_24" depart="125.00" departLane="5_1_2" departPos="5.10" departSpeed="0.00" departDelay="0.00" arrival="188.50" arrivalLane="1_3_2" arrivalPos="186.40" arrivalSpeed="13.00" duration="63.50" routeLength="395.15" waitingTime="17.50" waitingCount="1" stopTime="0.00" timeLoss="33.09" rerouteNo="0" devices="tripinfo_NS_24" vType="cars" speedFactor="1.16" vaporized=""/>
    <tripinfo id="SN_35" depart="156.00" departLane="3_1_2" departPos="5.10" departSpeed="0.00" departDelay="0.00" arrival="191.00" arrivalLane="1_5_1" arrivalPos="186.40" arrivalSpeed="13.00" duration="35.00" routeLength="395.15" waitingTime="0.00" waitingCount="0" stopTime="0.00" timeLoss="4.28" rerouteNo="0" devices="tripinfo_SN_35" vType="cars" speedFactor="1.11" vaporized=""/>
    <personinfo id="person_WN_diag.0" depart="19.90" type="DEFAULT_PEDTYPE" speedFactor="1.18">
        <walk depart="20.00" departPos="100.00" arrival="194.50" arrivalPos="93.20" duration="174.50" routeLength="233.56" timeLoss="31.64" maxSpeed="1.63"/>
    </personinfo>
    <tripinfo id="NS_26" depart="130.00" departLane="5_1_2" departPos="5.10" departSpeed="0.00" departDelay="0.00" arrival="197.00" arrivalLane="1_3_2" arrivalPos="186.40" arrivalSpeed="9.11" duration="67.00" routeLength="395.15" waitingTime="13.00" waitingCount="2" stopTime="0.00" timeLoss="36.43" rerouteNo="0" devices="tripinfo_NS_26" vType="cars" speedFactor="0.94" vaporized=""/>
    <tripinfo id="NS_30" depart="138.00" departLane="5_1_2" departPos="5.10" departSpeed="0.00" departDelay="0.00" arrival="197.00" arrivalLane="1_3_1" arrivalPos="186.40" arrivalSpeed="9.13" duration="59.00" routeLength="395.15" waitingTime="2.00" waitingCount="4" stopTime="0.00" timeLoss="28.41" rerouteNo="0" devices="tripinfo_NS_30" vType="cars" speedFactor="0.99" vaporized=""/>
    <tripinfo id="NS_31" depart="141.00" departLane="5_1_2" departPos="5.10" departSpeed="0.00" departDelay="2.00" arrival="198.50" arrivalLane="1_3_2" arrivalPos="186.40" arrivalSpeed="13.00" duration="57.50" routeLength="395.15" waitingTime="1.50" waitingCount="3" stopTime="0.00" timeLoss="26.80" rerouteNo="0" devices="tripinfo_NS_31" vType="cars" speedFactor="0.99" vaporized=""/>
    <tripinfo id="NS_32" depart="147.00" departLane="5_1_2" departPos="5.10" departSpeed="0.00" departDelay="0.00" arrival="198.50" arrivalLane="1_3_1" arrivalPos="186.40" arrivalSpeed="13.00" duration="51.50" routeLength="395.15" waitingTime="1.50" waitingCount="3" stopTime="0.00" timeLoss="20.78" rerouteNo="0" devices="tripinfo_NS_32" vType="cars" speedFactor="1.05" vaporized=""/>
    <tripinfo id="NS_34" depart="152.00" departLane="5_1_2" departPos="5.10" departSpeed="0.00" departDelay="0.00" arrival="200.00" arrivalLane="1_3_2" arrivalPos="186.40" arrivalSpeed="13.00" duration="48.00" routeLength="395.15" waitingTime="0.00" waitingCount="0" stopTime="0.00" timeLoss="17.22" rerouteNo="0" devices="tripinfo_NS_34" vType="cars" speedFactor="1.09" vaporized=""/>
    <tripinfo id="NS_38" depart="163.00" departLane="5_1_2" departPos="5.10" departSpeed="0.00" departDelay="0.00" arrival="201.00" arrivalLane="1_3_1" arrivalPos="186.40" arrivalSpeed="13.00" duration="38.00" routeLength="395.15" waitingTime="0.00" waitingCount="0" stopTime="0.00" timeLoss="7.59" rerouteNo="0" devices="tripinfo_NS_38" vType="cars" speedFactor="1.15" vaporized=""/>
    <personinfo id="person_SN_e.0" depart="26.87" type="DEFAULT_PEDTYPE" speedFactor="1.06">
        <walk depart="27.00" departPos="100.00" arrival="202.50" arrivalPos="93.20" duration="175.50" routeLength="221.24" timeLoss="25.72" maxSpeed="1.48"/>
    </personinfo>
    <personinfo id="person_WN_diag.1" depart="38.50" type="DEFAULT_PEDTYPE" speedFactor="1.13">
        <walk depart="38.50" departPos="100.00" arrival="205.50" arrivalPos="93.20" duration="167.00" routeLength="233.56" timeLoss="18.30" maxSpeed="1.57"/>
    </personinfo>
    <tripinfo id="NW_33" depart="147.00" departLane="5_1_1" departPos="5.10" departSpeed="0.00" departDelay="0.00" arrival="221.00" arrivalLane="1_2_1" arrivalPos="186.40" arrivalSpeed="13.00" duration="74.00" routeLength="379.43" waitingTime="28.00" waitingCount="3" stopTime="0.00" timeLoss="43.41" rerouteNo="0" devices="tripinfo_NW_33" vType="cars" speedFactor="0.90" vaporized=""/>
    <personinfo id="person_WE_s.2" depart="64.24" type="DEFAULT_PEDTYPE" speedFactor="1.20">
        <walk depart="64.50" departPos="100.00" arrival="222.50" arrivalPos="93.20" duration="158.00" routeLength="221.17" timeLoss="25.35" maxSpeed="1.67"/>
    </personinfo>
    <tripinfo id="WN_13" depart="85.00" departLane="2_1_3" departPos="5.10" departSpeed="0.00" departDelay="0.00" arrival="225.00" arrivalLane="1_5_2" arrivalPos="186.40" arrivalSpeed="13.00" duration="140.00" routeLength="392.22" waitingTime="100.50" waitingCount="1" stopTime="0.00" timeLoss="108.94" rerouteNo="0" devices="tripinfo_WN_13" vType="cars" speedFactor="1.02" vaporized=""/>
    <tripinfo id="WN_36" depart="158.00" departLane="2_1_3" departPos="5.10" departSpeed="0.00" departDelay="0.00" arrival="227.00" arrivalLane="1_5_2" arrivalPos="186.40" arrivalSpeed="13.00" duration="69.00" routeLength="392.22" waitingTime="22.50" waitingCount="3" stopTime="0.00" timeLoss="38.05" rerouteNo="0" devices="tripinfo_WN_36" vType="cars" speedFactor="1.07" vaporized=""/>
    <tripinfo id="WE_10" depart="178.50" departLane="2_1_2" departPos="5.10" departSpeed="0.00" departDelay="1.50" arrival="228.00" arrivalLane="1_4_1" arrivalPos="186.40" arrivalSpeed="13.00" duration="49.50" routeLength="395.15" waitingTime="6.50" waitingCount="1" stopTime="0.00" timeLoss="18.93" rerouteNo="0" devices="tripinfo_WE_10" vType="cars" speedFactor="1.18" vaporized=""/>
    <tripinfo id="WE_9" depart="175.00" departLane="2_1_2" departPos="5.10" departSpeed="0.00" departDelay="0.00" arrival="229.50" arrivalLane="1_4_1" arrivalPos="186.40" arrivalSpeed="13.00" duration="54.50" routeLength="395.15" waitingTime="13.00" waitingCount="1" stopTime="0.00" timeLoss="24.08" rerouteNo="0" devices="tripinfo_WE_9" vType="cars" speedFactor="1.13" vaporized=""/>
    <tripinfo id="WE_11" depart="187.00" departLane="2_1_2" departPos="5.10" departSpeed="0.00" departDelay="0.00" arrival="229.50" arrivalLane="1_4_2" arrivalPos="186.40" arrivalSpeed="13.00" duration="42.50" routeLength="395.15" waitingTime="0.00" waitingCount="0" stopTime="0.00" timeLoss="12.02" rerouteNo="0" devices="tripinfo_WE_11" vType="cars" speedFactor="1.16" vaporized=""/>
    <personinfo id="person_WE_s.1" depart="54.13" type="DEFAULT_PEDTYPE" speedFactor="1.08">
        <walk depart="54.50" departPos="100.00" arrival="230.00" arrivalPos="93.20" duration="175.50" routeLength="221.17" timeLoss="28.42" maxSpeed="1.50"/>
    </personinfo>
    <personinfo id="person_ES_diag.0" depart="32.59" type="DEFAULT_PEDTYPE" speedFactor="1.00">
        <walk depart="33.00" departPos="100.00" arrival="230.50" arrivalPos="93.20" duration="197.50" routeLength="228.35" timeLoss="33.66" maxSpeed="1.39"/>
    </personinfo>
    <personinfo id="person_SW_diag.6" depart="48.65" type="DEFAULT_PEDTYPE" speedFactor="1.04">
        <walk depart="49.00" departPos="100.00" arrival="233.50" arrivalPos="93.20" duration="184.50" routeLength="233.56" timeLoss="22.79" maxSpeed="1.44"/>
    </personinfo>
    <personinfo id="person_ES_diag.1" depart="38.44" type="DEFAULT_PEDTYPE" speedFactor="0.97">
        <walk depart="38.50" departPos="100.00" arrival="233.50" arrivalPos="93.20" duration="195.00" routeLength="226.69" timeLoss="27.00" maxSpeed="1.35"/>
    </personinfo>
    <personinfo id="person_WE_s.3" depart="77.47" type="DEFAULT_PEDTYPE" speedFactor="1.05">
        <walk depart="77.50" departPos="100.00" arrival="239.50" arrivalPos="93.20" duration="162.00" routeLength="221.17" timeLoss="9.73" maxSpeed="1.45"/>
    </personinfo>
    <tripinfo id="WE_12" depart="204.00" departLane="2_1_2" departPos="5.10" departSpeed="0.00" departDelay="0.00" arrival="239.50" arrivalLane="1_4_1" arrivalPos="186.40" arrivalSpeed="13.00" duration="35.50" routeLength="395.15" waitingTime="0.00" waitingCount="0" stopTime="0.00" timeLoss="4.75" rerouteNo="0" devices="tripinfo_WE_12" vType="cars" speedFactor="0.96" vaporized=""/>
    <personinfo id="person_SW_diag.3" depart="27.46" type="DEFAULT_PEDTYPE" speedFactor="1.21">
        <walk depart="27.50" departPos="100.00" arrival="242.50" arrivalPos="93.20" duration="215.00" routeLength="223.30" timeLoss="82.41" maxSpeed="1.68"/>
    </personinfo>
    <personinfo id="person_SW_diag.5" depart="47.40" type="DEFAULT_PEDTYPE" speedFactor="0.97">
        <walk depart="47.50" departPos="100.00" arrival="246.00" arrivalPos="93.20" duration="198.50" routeLength="233.56" timeLoss="24.29" maxSpeed="1.34"/>
    </personinfo>
    <personinfo id="person_NE_diag.0" depart="62.00" type="DEFAULT_PEDTYPE" speedFactor="1.15">
        <walk depart="62.00" departPos="100.00" arrival="246.00" arrivalPos="93.20" duration="184.00" routeLength="226.53" timeLoss="41.91" maxSpeed="1.59"/>
    </personinfo>
    <personinfo id="person_SW_diag.2" depart="13.29" type="DEFAULT_PEDTYPE" speedFactor="1.13">
        <walk depart="13.50" departPos="100.00" arrival="248.00" arrivalPos="93.20" duration="234.50" routeLength="226.41" timeLoss="90.11" maxSpeed="1.57"/>
    </personinfo>
    <personinfo id="person_NS_w.3" depart="23.76" type="DEFAULT_PEDTYPE" speedFactor="1.17">
        <walk depart="24.00" departPos="100.00" arrival="249.00" arrivalPos="93.20" duration="225.00" routeLength="221.25" timeLoss="88.72" maxSpeed="1.62"/>
    </personinfo>
    <tripinfo id="EW_7" depart="175.00" departLane="4_1_2" departPos="5.10" departSpeed="0.00" departDelay="0.00" arrival="251.00" arrivalLane="1_2_1" arrivalPos="186.40" arrivalSpeed="13.00" duration="76.00" routeLength="395.15" waitingTime="37.00" waitingCount="1" stopTime="0.00" timeLoss="45.55" rerouteNo="0" devices="tripinfo_EW_7" vType="cars" speedFactor="0.98" vaporized=""/>
    <tripinfo id="EW_8" depart="198.00" departLane="4_1_2" departPos="5.10" departSpeed="0.00" departDelay="0.00" arrival="251.00" arrivalLane="1_2_2" arrivalPos="186.40" arrivalSpeed="13.00" duration="53.00" routeLength="395.15" waitingTime="15.50" waitingCount="1" stopTime="0.00" timeLoss="22.55" rerouteNo="0" devices="tripinfo_EW_8" vType="cars" speedFactor="1.01" vaporized=""/>
    <tripinfo id="ES_22" depart="119.00" departLane="4_1_3" departPos="5.10" departSpeed="0.00" departDelay="0.00" arrival="252.00" arrivalLane="1_3_2" arrivalPos="186.40" arrivalSpeed="13.00" duration="133.00" routeLength="392.22" waitingTime="92.50" waitingCount="1" stopTime="0.00" timeLoss="102.01" rerouteNo="0" devices="tripinfo_ES_22" vType="cars" speedFactor="1.05" vaporized=""/>
    <tripinfo id="EN_48" depart="206.00" departLane="4_1_1" departPos="5.10" departSpeed="0.00" departDelay="0.00" arrival="252.00" arrivalLane="1_5_1" arrivalPos="186.40" arrivalSpeed="13.00" duration="46.00" routeLength="379.42" waitingTime="0.50" waitingCount="1" stopTime="0.00" timeLoss="15.84" rerouteNo="0" devices="tripinfo_EN_48" vType="cars" speedFactor="1.01" vaporized=""/>
    <tripinfo id="EW_9" depart="203.00" departLane="4_1_2" departPos="5.10" departSpeed="0.00" departDelay="0.00" arrival="252.50" arrivalLane="1_2_1" arrivalPos="186.40" arrivalSpeed="13.00" duration="49.50" routeLength="395.15" waitingTime="4.50" waitingCount="5" stopTime="0.00" timeLoss="19.09" rerouteNo="0" devices="tripinfo_EW_9" vType="cars" speedFactor="0.90" vaporized=""/>
    <tripinfo id="ES_37" depart="160.00" departLane="4_1_3" departPos="5.10" departSpeed="0.00" departDelay="0.00" arrival="254.00" arrivalLane="1_3_2" arrivalPos="186.40" arrivalSpeed="13.00" duration="94.00" routeLength="392.22" waitingTime="48.50" waitingCount="5" stopTime="0.00" timeLoss="63.31" rerouteNo="0" devices="tripinfo_ES_37" vType="cars" speedFactor="1.21" vaporized=""/>