<?xml version="1.0" encoding="UTF-8"?>

<!-- generated on 2025-02-24 16:25:23 by Eclipse SUMO GUI Version 1.20.0
<configuration xmlns:xsi="http://www.w3.org/2001/XMLSchema-instance" xsi:noNamespaceSchemaLocation="http://sumo.dlr.de/xsd/sumoConfiguration.xsd">

    <input>
        <net-file value="/home/naderian/Desktop/Shakiba/CET593/environment/network_model/single_intersection_pedestrian_X.net.xml"/>
        <route-files value="/home/naderian/Desktop/Shakiba/CET593/environment/network_model/single_intersection.rou.xml"/>
        <additional-files value="/home/naderian/Desktop/Shakiba/CET593/environment/network_model/single_intersection.add.xml"/>
    </input>

    <output>
        <queue-output value="/home/naderian/Desktop/Shakiba/CET593/environment/simulation_data/single_intersection/queues_multi_scale_symmetric_pene_100.xml"/>
        <tripinfo-output value="/home/naderian/Desktop/Shakiba/CET593/environment/simulation_data/single_intersection/tripinfo_multi_scale_symmetric_pene_100.xml"/>
    </output>

    <time>
        <begin value="0"/>
        <step-length value="0.5"/>
    </time>

    <processing>
        <waiting-time-memory value="1000"/>
    </processing>

    <report>
        <verbose value="true"/>
        <no-step-log value="true"/>
    </report>

    <traci_server>
        <remote-port value="44115"/>
    </traci_server>

    <gui_only>
        <start value="true"/>
    </gui_only>

</configuration>
-->

<tripinfos xmlns:xsi="http://www.w3.org/2001/XMLSchema-instance" xsi:noNamespaceSchemaLocation="http://sumo.dlr.de/xsd/tripinfo_file.xsd">
    <tripinfo id="SN_0" depart="0.00" departLane="3_1_2" departPos="5.10" departSpeed="0.00" departDelay="0.00" arrival="35.00" arrivalLane="1_5_1" arrivalPos="186.40" arrivalSpeed="13.00" duration="35.00" routeLength="395.15" waitingTime="0.00" waitingCount="0" stopTime="0.00" timeLoss="4.21" rerouteNo="0" devices="tripinfo_SN_0" vType="cars" speedFactor="0.97" vaporized=""/>
    <tripinfo id="SN_2" depart="5.00" departLane="3_1_2" departPos="5.10" departSpeed="0.00" departDelay="0.00" arrival="40.50" arrivalLane="1_5_1" arrivalPos="186.40" arrivalSpeed="13.00" duration="35.50" routeLength="395.15" waitingTime="0.00" waitingCount="0" stopTime="0.00" timeLoss="4.90" rerouteNo="0" devices="tripinfo_SN_2" vType="cars" speedFactor="0.86" vaporized=""/>
    <tripinfo id="WE_0" depart="1.00" departLane="2_1_2" departPos="5.10" departSpeed="0.00" departDelay="0.00" arrival="50.00" arrivalLane="1_4_1" arrivalPos="186.40" arrivalSpeed="13.00" duration="49.00" routeLength="395.15" waitingTime="10.50" waitingCount="1" stopTime="0.00" timeLoss="18.55" rerouteNo="0" devices="tripinfo_WE_0" vType="cars" speedFactor="0.91" vaporized=""/>
    <tripinfo id="WE_1" depart="10.00" departLane="2_1_2" departPos="5.10" departSpeed="0.00" departDelay="0.00" arrival="50.00" arrivalLane="1_4_2" arrivalPos="186.40" arrivalSpeed="13.00" duration="40.00" routeLength="395.15" waitingTime="1.00" waitingCount="1" stopTime="0.00" timeLoss="9.55" rerouteNo="0" devices="tripinfo_WE_1" vType="cars" speedFactor="1.06" vaporized=""/>
    <tripinfo id="WS_3" depart="7.00" departLane="2_1_1" departPos="5.10" departSpeed="0.00" departDelay="0.00" arrival="51.00" arrivalLane="1_3_1" arrivalPos="186.40" arrivalSpeed="13.00" duration="44.00" routeLength="379.43" waitingTime="0.00" waitingCount="0" stopTime="0.00" timeLoss="13.84" rerouteNo="0" devices="tripinfo_WS_3" vType="cars" speedFactor="0.95" vaporized=""/>
    <tripinfo id="WE_2" depart="12.50" departLane="2_1_2" departPos="5.10" departSpeed="0.00" departDelay="0.50" arrival="51.50" arrivalLane="1_4_1" arrivalPos="186.40" arrivalSpeed="13.00" duration="39.00" routeLength="395.15" waitingTime="0.00" waitingCount="0" stopTime="0.00" timeLoss="8.59" rerouteNo="0" devices="tripinfo_WE_2" vType="cars" speedFactor="0.94" vaporized=""/>
    <tripinfo id="EW_0" depart="19.00" departLane="4_1_2" departPos="5.10" departSpeed="0.00" departDelay="0.00" arrival="54.50" arrivalLane="1_2_1" arrivalPos="186.40" arrivalSpeed="13.00" duration="35.50" routeLength="395.15" waitingTime="0.00" waitingCount="0" stopTime="0.00" timeLoss="4.92" rerouteNo="0" devices="tripinfo_EW_0" vType="cars" speedFactor="1.05" vaporized=""/>
    <tripinfo id="EW_1" depart="21.50" departLane="4_1_2" departPos="5.10" departSpeed="0.00" departDelay="0.50" arrival="57.50" arrivalLane="1_2_1" arrivalPos="186.40" arrivalSpeed="13.00" duration="36.00" routeLength="395.15" waitingTime="0.00" waitingCount="0" stopTime="0.00" timeLoss="5.24" rerouteNo="0" devices="tripinfo_EW_1" vType="cars" speedFactor="1.01" vaporized=""/>
    <tripinfo id="ES_4" depart="14.00" departLane="4_1_3" departPos="5.10" departSpeed="0.00" departDelay="0.00" arrival="68.00" arrivalLane="1_3_2" arrivalPos="186.40" arrivalSpeed="13.00" duration="54.00" routeLength="392.22" waitingTime="11.50" waitingCount="1" stopTime="0.00" timeLoss="22.83" rerouteNo="0" devices="tripinfo_ES_4" vType="cars" speedFactor="0.97" vaporized=""/>
    <tripinfo id="ES_6" depart="31.00" departLane="4_1_3" departPos="5.10" departSpeed="0.00" departDelay="0.00" arrival="69.50" arrivalLane="1_3_2" arrivalPos="186.40" arrivalSpeed="13.00" duration="38.50" routeLength="392.22" waitingTime="0.00" waitingCount="0" stopTime="0.00" timeLoss="7.98" rerouteNo="0" devices="tripinfo_ES_6" vType="cars" speedFactor="1.07" vaporized=""/>
    <tripinfo id="NS_1" depart="1.00" departLane="5_1_2" departPos="5.10" departSpeed="0.00" departDelay="0.00" arrival="79.00" arrivalLane="1_3_1" arrivalPos="186.40" arrivalSpeed="13.00" duration="78.00" routeLength="395.15" waitingTime="39.00" waitingCount="1" stopTime="0.00" timeLoss="47.55" rerouteNo="0" devices="tripinfo_NS_1" vType="cars" speedFactor="1.11" vaporized=""/>
    <tripinfo id="NS_5" depart="22.00" departLane="5_1_2" departPos="5.10" departSpeed="0.00" departDelay="0.00" arrival="79.00" arrivalLane="1_3_2" arrivalPos="186.40" arrivalSpeed="13.00" duration="57.00" routeLength="395.15" waitingTime="18.00" waitingCount="1" stopTime="0.00" timeLoss="26.55" rerouteNo="0" devices="tripinfo_NS_5" vType="cars" speedFactor="1.01" vaporized=""/>
    <tripinfo id="NW_7" depart="37.00" departLane="5_1_1" departPos="5.10" departSpeed="0.00" departDelay="0.00" arrival="79.50" arrivalLane="1_2_1" arrivalPos="186.40" arrivalSpeed="13.00" duration="42.50" routeLength="379.43" waitingTime="0.00" waitingCount="0" stopTime="0.00" timeLoss="12.80" rerouteNo="0" devices="tripinfo_NW_7" vType="cars" speedFactor="1.13" vaporized=""/>
    <tripinfo id="SN_10" depart="48.00" departLane="3_1_2" departPos="5.10" departSpeed="0.00" departDelay="0.00" arrival="83.50" arrivalLane="1_5_1" arrivalPos="186.40" arrivalSpeed="13.00" duration="35.50" routeLength="395.15" waitingTime="0.00" waitingCount="0" stopTime="0.00" timeLoss="4.85" rerouteNo="0" devices="tripinfo_SN_10" vType="cars" speedFactor="1.02" vaporized=""/>
    <tripinfo id="NW_9" depart="41.00" departLane="5_1_1" departPos="5.10" departSpeed="0.00" departDelay="0.00" arrival="88.00" arrivalLane="1_2_1" arrivalPos="186.40" arrivalSpeed="9.04" duration="47.00" routeLength="379.43" waitingTime="0.00" waitingCount="0" stopTime="0.00" timeLoss="16.88" rerouteNo="0" devices="tripinfo_NW_9" vType="cars" speedFactor="0.91" vaporized=""/>
    <tripinfo id="WE_3" depart="43.00" departLane="2_1_2" departPos="5.10" departSpeed="0.00" departDelay="0.00" arrival="96.00" arrivalLane="1_4_1" arrivalPos="186.40" arrivalSpeed="13.00" duration="53.00" routeLength="395.15" waitingTime="11.50" waitingCount="1" stopTime="0.00" timeLoss="22.55" rerouteNo="0" devices="tripinfo_WE_3" vType="cars" speedFactor="1.05" vaporized=""/>
    <tripinfo id="EW_2" depart="46.00" departLane="4_1_2" departPos="5.10" departSpeed="0.00" departDelay="0.00" arrival="96.00" arrivalLane="1_2_1" arrivalPos="186.40" arrivalSpeed="13.00" duration="50.00" routeLength="395.15" waitingTime="9.50" waitingCount="1" stopTime="0.00" timeLoss="19.55" rerouteNo="0" devices="tripinfo_EW_2" vType="cars" speedFactor="1.05" vaporized=""/>
    <tripinfo id="WE_4" depart="67.00" departLane="2_1_2" departPos="5.10" departSpeed="0.00" departDelay="0.00" arrival="103.00" arrivalLane="1_4_1" arrivalPos="186.40" arrivalSpeed="13.00" duration="36.00" routeLength="395.15" waitingTime="0.00" waitingCount="0" stopTime="0.00" timeLoss="5.36" rerouteNo="0" devices="tripinfo_WE_4" vType="cars" speedFactor="0.96" vaporized=""/>
    <tripinfo id="EW_3" depart="68.00" departLane="4_1_2" departPos="5.10" departSpeed="0.00" departDelay="0.00" arrival="103.50" arrivalLane="1_2_1" arrivalPos="186.40" arrivalSpeed="13.00" duration="35.50" routeLength="395.15" waitingTime="0.00" waitingCount="0" stopTime="0.00" timeLoss="5.04" rerouteNo="0" devices="tripinfo_EW_3" vType="cars" speedFactor="0.98" vaporized=""/>
    <tripinfo id="SN_11" depart="70.00" departLane="3_1_2" departPos="5.10" departSpeed="0.00" departDelay="0.00" arrival="113.00" arrivalLane="1_5_1" arrivalPos="186.40" arrivalSpeed="13.00" duration="43.00" routeLength="395.15" waitingTime="5.00" waitingCount="1" stopTime="0.00" timeLoss="12.55" rerouteNo="0" devices="tripinfo_SN_11" vType="cars" speedFactor="1.02" vaporized=""/>
    <tripinfo id="SW_8" depart="40.00" departLane="3_1_3" departPos="5.10" departSpeed="0.00" departDelay="0.00" arrival="114.00" arrivalLane="1_2_2" arrivalPos="186.40" arrivalSpeed="13.00" duration="74.00" routeLength="392.22" waitingTime="29.50" waitingCount="1" stopTime="0.00" timeLoss="42.53" rerouteNo="0" devices="tripinfo_SW_8" vType="cars" speedFactor="0.85" vaporized=""/>
    <tripinfo id="WN_13" depart="85.00" departLane="2_1_3" departPos="5.10" departSpeed="0.00" departDelay="0.00" arrival="126.00" arrivalLane="1_5_2" arrivalPos="186.40" arrivalSpeed="13.00" duration="41.00" routeLength="392.22" waitingTime="0.50" waitingCount="1" stopTime="0.00" timeLoss="9.89" rerouteNo="0" devices="tripinfo_WN_13" vType="cars" speedFactor="0.99" vaporized=""/>
    <tripinfo id="WE_6" depart="88.50" departLane="2_1_2" departPos="5.10" departSpeed="0.00" departDelay="1.50" arrival="127.00" arrivalLane="1_4_2" arrivalPos="186.40" arrivalSpeed="13.00" duration="38.50" routeLength="395.15" waitingTime="0.00" waitingCount="0" stopTime="0.00" timeLoss="7.87" rerouteNo="0" devices="tripinfo_WE_6" vType="cars" speedFactor="0.93" vaporized=""/>
    <tripinfo id="WE_5" depart="86.00" departLane="2_1_2" departPos="5.10" departSpeed="0.00" departDelay="0.00" arrival="128.50" arrivalLane="1_4_1" arrivalPos="186.40" arrivalSpeed="13.00" duration="42.50" routeLength="395.15" waitingTime="1.00" waitingCount="1" stopTime="0.00" timeLoss="11.71" rerouteNo="0" devices="tripinfo_WE_5" vType="cars" speedFactor="0.99" vaporized=""/>
    <tripinfo id="NS_12" depart="80.00" departLane="5_1_2" departPos="5.10" departSpeed="0.00" departDelay="0.00" arrival="147.00" arrivalLane="1_3_1" arrivalPos="186.40" arrivalSpeed="13.00" duration="67.00" routeLength="395.15" waitingTime="27.50" waitingCount="1" stopTime="0.00" timeLoss="36.55" rerouteNo="0" devices="tripinfo_NS_12" vType="cars" speedFactor="1.07" vaporized=""/>
    <tripinfo id="SN_14" depart="90.00" departLane="3_1_2" departPos="5.10" departSpeed="0.00" departDelay="0.00" arrival="147.00" arrivalLane="1_5_1" arrivalPos="186.40" arrivalSpeed="13.00" duration="57.00" routeLength="395.15" waitingTime="14.00" waitingCount="1" stopTime="0.00" timeLoss="26.55" rerouteNo="0" devices="tripinfo_SN_14" vType="cars" speedFactor="1.05" vaporized=""/>
    <tripinfo id="NS_15" depart="92.00" departLane="5_1_2" departPos="5.10" departSpeed="0.00" departDelay="0.00" arrival="147.00" arrivalLane="1_3_2" arrivalPos="186.40" arrivalSpeed="13.00" duration="55.00" routeLength="395.15" waitingTime="12.00" waitingCount="1" stopTime="0.00" timeLoss="24.55" rerouteNo="0" devices="tripinfo_NS_15" vType="cars" speedFactor="1.01" vaporized=""/>
    <tripinfo id="SN_16" depart="93.00" departLane="3_1_2" departPos="5.10" departSpeed="0.00" departDelay="0.00" arrival="147.00" arrivalLane="1_5_2" arrivalPos="186.40" arrivalSpeed="13.00" duration="54.00" routeLength="395.15" waitingTime="12.00" waitingCount="1" stopTime="0.00" timeLoss="23.55" rerouteNo="0" devices="tripinfo_SN_16" vType="cars" speedFactor="0.91" vaporized=""/>
    <tripinfo id="NS_18" depart="99.00" departLane="5_1_2" departPos="5.10" departSpeed="0.00" departDelay="0.00" arrival="148.50" arrivalLane="1_3_1" arrivalPos="186.40" arrivalSpeed="13.00" duration="49.50" routeLength="395.15" waitingTime="5.00" waitingCount="4" stopTime="0.00" timeLoss="19.09" rerouteNo="0" devices="tripinfo_NS_18" vType="cars" speedFactor="0.84" vaporized=""/>
    <tripinfo id="SE_19" depart="100.00" departLane="3_1_1" departPos="5.10" departSpeed="0.00" departDelay="0.00" arrival="148.50" arrivalLane="1_4_1" arrivalPos="186.40" arrivalSpeed="13.00" duration="48.50" routeLength="379.42" waitingTime="1.50" waitingCount="3" stopTime="0.00" timeLoss="18.25" rerouteNo="0" devices="tripinfo_SE_19" vType="cars" speedFactor="0.92" vaporized=""/>
    <tripinfo id="SN_20" depart="109.00" departLane="3_1_2" departPos="5.10" departSpeed="0.00" departDelay="0.00" arrival="148.50" arrivalLane="1_5_2" arrivalPos="186.40" arrivalSpeed="13.00" duration="39.50" routeLength="395.15" waitingTime="0.00" waitingCount="0" stopTime="0.00" timeLoss="9.09" rerouteNo="0" devices="tripinfo_SN_20" vType="cars" speedFactor="0.89" vaporized=""/>
    <tripinfo id="NS_24" depart="125.00" departLane="5_1_2" departPos="5.10" departSpeed="0.00" departDelay="0.00" arrival="160.50" arrivalLane="1_3_1" arrivalPos="186.40" arrivalSpeed="13.00" duration="35.50" routeLength="395.15" waitingTime="0.00" waitingCount="0" stopTime="0.00" timeLoss="4.91" rerouteNo="0" devices="tripinfo_NS_24" vType="cars" speedFactor="1.22" vaporized=""/>
    <tripinfo id="SN_25" depart="126.00" departLane="3_1_2" departPos="5.10" departSpeed="0.00" departDelay="0.00" arrival="161.50" arrivalLane="1_5_1" arrivalPos="186.40" arrivalSpeed="13.00" duration="35.50" routeLength="395.15" waitingTime="0.00" waitingCount="0" stopTime="0.00" timeLoss="5.00" rerouteNo="0" devices="tripinfo_SN_25" vType="cars" speedFactor="0.91" vaporized=""/>
    <tripinfo id="NS_26" depart="130.00" departLane="5_1_2" departPos="5.10" departSpeed="0.00" departDelay="0.00" arrival="165.50" arrivalLane="1_3_1" arrivalPos="186.40" arrivalSpeed="13.00" duration="35.50" routeLength="395.15" waitingTime="0.00" waitingCount="0" stopTime="0.00" timeLoss="5.05" rerouteNo="0" devices="tripinfo_NS_26" vType="cars" speedFactor="1.04" vaporized=""/>
    <tripinfo id="SN_27" depart="130.00" departLane="3_1_2" departPos="5.10" departSpeed="0.00" departDelay="0.00" arrival="166.00" arrivalLane="1_5_1" arrivalPos="186.40" arrivalSpeed="13.00" duration="36.00" routeLength="395.15" waitingTime="0.00" waitingCount="0" stopTime="0.00" timeLoss="5.44" rerouteNo="0" devices="tripinfo_SN_27" vType="cars" speedFactor="1.11" vaporized=""/>
    <tripinfo id="NS_30" depart="138.00" departLane="5_1_2" departPos="5.10" departSpeed="0.00" departDelay="0.00" arrival="173.00" arrivalLane="1_3_1" arrivalPos="186.40" arrivalSpeed="13.00" duration="35.00" routeLength="395.15" waitingTime="0.00" waitingCount="0" stopTime="0.00" timeLoss="4.33" rerouteNo="0" devices="tripinfo_NS_30" vType="cars" speedFactor="1.01" vaporized=""/>
    <personinfo id="person_WE_s.0" depart="1.92" type="DEFAULT_PEDTYPE" speedFactor="0.98" duration="175.00" waitingTime="0.00" timeLoss="11.71" traveltime="175.00">
        <walk depart="2.00" departPos="100.00" arrival="177.00" arrivalPos="93.20" duration="175.00" routeLength="221.17" timeLoss="11.71" maxSpeed="1.35"/>
    </personinfo>
    <tripinfo id="WE_7" depart="125.00" departLane="2_1_2" departPos="5.10" departSpeed="0.00" departDelay="0.00" arrival="184.00" arrivalLane="1_4_1" arrivalPos="186.40" arrivalSpeed="13.00" duration="59.00" routeLength="395.15" waitingTime="20.00" waitingCount="1" stopTime="0.00" timeLoss="28.55" rerouteNo="0" devices="tripinfo_WE_7" vType="cars" speedFactor="1.02" vaporized=""/>
    <tripinfo id="EW_5" depart="126.00" departLane="4_1_2" departPos="5.10" departSpeed="0.00" departDelay="1.00" arrival="184.00" arrivalLane="1_2_1" arrivalPos="186.40" arrivalSpeed="13.00" duration="58.00" routeLength="395.15" waitingTime="16.50" waitingCount="1" stopTime="0.00" timeLoss="27.55" rerouteNo="0" devices="tripinfo_EW_5" vType="cars" speedFactor="1.09" vaporized=""/>
    <tripinfo id="EW_6" depart="137.00" departLane="4_1_2" departPos="5.10" departSpeed="0.00" departDelay="0.00" arrival="185.50" arrivalLane="1_2_1" arrivalPos="186.40" arrivalSpeed="13.00" duration="48.50" routeLength="395.15" waitingTime="4.50" waitingCount="4" stopTime="0.00" timeLoss="17.90" rerouteNo="0" devices="tripinfo_EW_6" vType="cars" speedFactor="1.08" vaporized=""/>
    <tripinfo id="WE_8" depart="134.00" departLane="2_1_2" departPos="5.10" departSpeed="0.00" departDelay="0.00" arrival="186.00" arrivalLane="1_4_2" arrivalPos="186.40" arrivalSpeed="13.00" duration="52.00" routeLength="395.15" waitingTime="5.00" waitingCount="2" stopTime="0.00" timeLoss="21.33" rerouteNo="0" devices="tripinfo_WE_8" vType="cars" speedFactor="1.01" vaporized=""/>
    <tripinfo id="EW_4" depart="123.00" departLane="4_1_2" departPos="5.10" departSpeed="0.00" departDelay="0.00" arrival="188.50" arrivalLane="1_2_2" arrivalPos="186.40" arrivalSpeed="13.00" duration="65.50" routeLength="395.15" waitingTime="19.50" waitingCount="3" stopTime="0.00" timeLoss="34.81" rerouteNo="0" devices="tripinfo_EW_4" vType="cars" speedFactor="1.11" vaporized=""/>
    <personinfo id="person_NE_diag.0" depart="4.87" type="DEFAULT_PEDTYPE" speedFactor="0.99" duration="184.50" waitingTime="0.00" timeLoss="19.27" traveltime="184.50">
        <walk depart="5.00" departPos="100.00" arrival="189.50" arrivalPos="93.20" duration="184.50" routeLength="226.53" timeLoss="19.27" maxSpeed="1.37"/>
    </personinfo>
    <tripinfo id="WS_23" depart="125.00" departLane="2_1_1" departPos="5.10" departSpeed="0.00" departDelay="0.00" arrival="197.00" arrivalLane="1_3_1" arrivalPos="186.40" arrivalSpeed="13.00" duration="72.00" routeLength="379.43" waitingTime="30.00" waitingCount="2" stopTime="0.00" timeLoss="41.77" rerouteNo="0" devices="tripinfo_WS_23" vType="cars" speedFactor="1.02" vaporized=""/>
    <tripinfo id="EN_21" depart="111.00" departLane="4_1_1" departPos="5.10" departSpeed="0.00" departDelay="0.00" arrival="198.00" arrivalLane="1_5_1" arrivalPos="186.40" arrivalSpeed="13.00" duration="87.00" routeLength="379.42" waitingTime="44.50" waitingCount="2" stopTime="0.00" timeLoss="56.73" rerouteNo="0" devices="tripinfo_EN_21" vType="cars" speedFactor="1.00" vaporized=""/>
    <personinfo id="person_SN_e.0" depart="16.32" type="DEFAULT_PEDTYPE" speedFactor="0.96" duration="182.50" waitingTime="0.00" timeLoss="16.83" traveltime="182.50">
        <walk depart="16.50" departPos="100.00" arrival="199.00" arrivalPos="93.20" duration="182.50" routeLength="221.24" timeLoss="16.83" maxSpeed="1.34"/>
    </personinfo>
    <tripinfo id="EN_29" depart="137.00" departLane="4_1_1" departPos="5.10" departSpeed="0.00" departDelay="0.00" arrival="209.00" arrivalLane="1_5_1" arrivalPos="186.40" arrivalSpeed="13.00" duration="72.00" routeLength="379.42" waitingTime="21.50" waitingCount="5" stopTime="0.00" timeLoss="41.95" rerouteNo="0" devices="tripinfo_EN_29" vType="cars" speedFactor="1.15" vaporized=""/>
    <tripinfo id="NS_32" depart="147.00" departLane="5_1_2" departPos="5.10" departSpeed="0.00" departDelay="0.00" arrival="211.50" arrivalLane="1_3_2" arrivalPos="186.40" arrivalSpeed="13.00" duration="64.50" routeLength="395.15" waitingTime="21.00" waitingCount="1" stopTime="0.00" timeLoss="33.87" rerouteNo="0" devices="tripinfo_NS_32" vType="cars" speedFactor="1.00" vaporized=""/>
    <personinfo id="person_NS_w.1" depart="10.87" type="DEFAULT_PEDTYPE" speedFactor="1.12" duration="201.00" waitingTime="0.00" timeLoss="58.68" traveltime="201.00">
        <walk depart="11.00" departPos="100.00" arrival="212.00" arrivalPos="93.20" duration="201.00" routeLength="221.25" timeLoss="58.68" maxSpeed="1.55"/>
    </personinfo>
    <tripinfo id="NS_31" depart="140.50" departLane="5_1_2" departPos="5.10" departSpeed="0.00" departDelay="1.50" arrival="212.00" arrivalLane="1_3_1" arrivalPos="186.40" arrivalSpeed="13.00" duration="71.50" routeLength="395.15" waitingTime="32.00" waitingCount="1" stopTime="0.00" timeLoss="41.02" rerouteNo="0" devices="tripinfo_NS_31" vType="cars" speedFactor="1.01" vaporized=""/>
    <tripinfo id="NS_34" depart="152.00" departLane="5_1_2" departPos="5.10" departSpeed="0.00" departDelay="0.00" arrival="213.00" arrivalLane="1_3_2" arrivalPos="186.40" arrivalSpeed="13.00" duration="61.00" routeLength="395.15" waitingTime="15.00" waitingCount="3" stopTime="0.00" timeLoss="30.40" rerouteNo="0" devices="tripinfo_NS_34" vType="cars" speedFactor="0.85" vaporized=""/>
    <tripinfo id="SN_35" depart="156.00" departLane="3_1_2" departPos="5.10" departSpeed="0.00" departDelay="0.00" arrival="218.00" arrivalLane="1_5_1" arrivalPos="186.40" arrivalSpeed="11.00" duration="62.00" routeLength="395.15" waitingTime="20.00" waitingCount="1" stopTime="0.00" timeLoss="31.29" rerouteNo="0" devices="tripinfo_SN_35" vType="cars" speedFactor="1.06" vaporized=""/>
    <tripinfo id="NS_38" depart="163.00" departLane="5_1_2" departPos="5.10" departSpeed="0.00" departDelay="0.00" arrival="221.00" arrivalLane="1_3_1" arrivalPos="186.40" arrivalSpeed="9.11" duration="58.00" routeLength="395.15" waitingTime="5.50" waitingCount="3" stopTime="0.00" timeLoss="27.45" rerouteNo="0" devices="tripinfo_NS_38" vType="cars" speedFactor="0.93" vaporized=""/>
    <personinfo id="person_NS_w.0" depart="3.48" type="DEFAULT_PEDTYPE" speedFactor="1.00" duration="219.50" waitingTime="0.00" timeLoss="59.72" traveltime="219.50">
        <walk depart="3.50" departPos="100.00" arrival="223.00" arrivalPos="93.20" duration="219.50" routeLength="221.25" timeLoss="59.72" maxSpeed="1.38"/>
    </personinfo>
    <personinfo id="person_NS_w.2" depart="10.90" type="DEFAULT_PEDTYPE" speedFactor="1.00" duration="212.50" waitingTime="0.00" timeLoss="52.87" traveltime="212.50">
        <walk depart="11.00" departPos="100.00" arrival="223.50" arrivalPos="93.20" duration="212.50" routeLength="221.25" timeLoss="52.87" maxSpeed="1.39"/>
    </personinfo>
    <personinfo id="person_NS_w.3" depart="12.93" type="DEFAULT_PEDTYPE" speedFactor="0.99" duration="211.00" waitingTime="0.00" timeLoss="49.61" traveltime="211.00">
        <walk depart="13.00" departPos="100.00" arrival="224.00" arrivalPos="93.20" duration="211.00" routeLength="221.25" timeLoss="49.61" maxSpeed="1.37"/>
    </personinfo>
    <tripinfo id="NS_40" depart="188.00" departLane="5_1_2" departPos="5.10" departSpeed="0.00" departDelay="0.00" arrival="224.50" arrivalLane="1_3_2" arrivalPos="186.40" arrivalSpeed="13.00" duration="36.50" routeLength="395.15" waitingTime="0.00" waitingCount="0" stopTime="0.00" timeLoss="5.94" rerouteNo="0" devices="tripinfo_NS_40" vType="cars" speedFactor="1.05" vaporized=""/>
    <personinfo id="person_SN_e.3" depart="86.45" type="DEFAULT_PEDTYPE" speedFactor="1.23" duration="138.50" waitingTime="0.00" timeLoss="8.57" traveltime="138.50">
        <walk depart="86.50" departPos="100.00" arrival="225.00" arrivalPos="93.20" duration="138.50" routeLength="221.24" timeLoss="8.57" maxSpeed="1.70"/>
    </personinfo>
    <personinfo id="person_NS_w.9" depart="66.54" type="DEFAULT_PEDTYPE" speedFactor="1.06" duration="159.50" waitingTime="0.00" timeLoss="8.61" traveltime="159.50">
        <walk depart="67.00" departPos="100.00" arrival="226.50" arrivalPos="93.20" duration="159.50" routeLength="221.25" timeLoss="8.61" maxSpeed="1.47"/>
    </personinfo>
    <personinfo id="person_NS_w.4" depart="22.10" type="DEFAULT_PEDTYPE" speedFactor="0.96" duration="204.50" waitingTime="0.00" timeLoss="38.51" traveltime="204.50">
        <walk depart="22.50" departPos="100.00" arrival="227.00" arrivalPos="93.20" duration="204.50" routeLength="221.25" timeLoss="38.51" maxSpeed="1.33"/>
    </personinfo>
    <personinfo id="person_WN_diag.0" depart="27.30" type="DEFAULT_PEDTYPE" speedFactor="0.93" duration="202.50" waitingTime="0.00" timeLoss="22.85" traveltime="202.50">
        <walk depart="27.50" departPos="100.00" arrival="230.00" arrivalPos="93.20" duration="202.50" routeLength="231.66" timeLoss="22.85" maxSpeed="1.29"/>
    </personinfo>
    <personinfo id="person_SN_e.1" depart="49.21" type="DEFAULT_PEDTYPE" speedFactor="0.96" duration="181.00" waitingTime="0.00" timeLoss="15.02" traveltime="181.00">
        <walk depart="49.50" departPos="100.00" arrival="230.50" arrivalPos="93.20" duration="181.00" routeLength="221.24" timeLoss="15.02" maxSpeed="1.33"/>
    </personinfo>
    <personinfo id="person_NS_w.6" depart="35.57" type="DEFAULT_PEDTYPE" speedFactor="0.95" duration="195.00" waitingTime="0.00" timeLoss="26.93" traveltime="195.00">
        <walk depart="36.00" departPos="100.00" arrival="231.00" arrivalPos="93.20" duration="195.00" routeLength="221.25" timeLoss="26.93" maxSpeed="1.32"/>
    </personinfo>
    <personinfo id="person_NS_w.10" depart="78.08" type="DEFAULT_PEDTYPE" speedFactor="1.12" duration="152.50" waitingTime="0.00" timeLoss="9.98" traveltime="152.50">
        <walk depart="78.50" departPos="100.00" arrival="231.00" arrivalPos="93.20" duration="152.50" routeLength="221.25" timeLoss="9.98" maxSpeed="1.55"/>
    </personinfo>
    <personinfo id="person_NS_w.7" depart="50.97" type="DEFAULT_PEDTYPE" speedFactor="1.02" duration="180.00" waitingTime="0.00" timeLoss="24.15" traveltime="180.00">
        <walk depart="51.00" departPos="100.00" arrival="231.00" arrivalPos="93.20" duration="180.00" routeLength="221.25" timeLoss="24.15" maxSpeed="1.42"/>
    </personinfo>
    <tripinfo id="SN_42" depart="196.00" departLane="3_1_2" departPos="5.10" departSpeed="0.00" departDelay="0.00" arrival="231.50" arrivalLane="1_5_1" arrivalPos="186.40" arrivalSpeed="13.00" duration="35.50" routeLength="395.15" waitingTime="0.00" waitingCount="0" stopTime="0.00" timeLoss="4.67" rerouteNo="0" devices="tripinfo_SN_42" vType="cars" speedFactor="1.04" vaporized=""/>
    <tripinfo id="NS_43" depart="197.00" departLane="5_1_2" departPos="5.10" departSpeed="0.00" departDelay="0.00" arrival="232.00" arrivalLane="1_3_2" arrivalPos="186.40" arrivalSpeed="13.00" duration="35.00" routeLength="395.15" waitingTime="0.00" waitingCount="0" stopTime="0.00" timeLoss="4.29" rerouteNo="0" devices="tripinfo_NS_43" vType="cars" speedFactor="0.98" vaporized=""/>
    <tripinfo id="NW_33" depart="147.00" departLane="5_1_1" departPos="5.10" departSpeed="0.00" departDelay="0.00" arrival="234.50" arrivalLane="1_2_1" arrivalPos="186.40" arrivalSpeed="13.00" duration="87.50" routeLength="379.43" waitingTime="39.00" waitingCount="4" stopTime="0.00" timeLoss="56.71" rerouteNo="0" devices="tripinfo_NW_33" vType="cars" speedFactor="0.83" vaporized=""/>
    <personinfo id="person_NS_w.8" depart="52.94" type="DEFAULT_PEDTYPE" speedFactor="0.93" duration="182.00" waitingTime="0.00" timeLoss="10.33" traveltime="182.00">
        <walk depart="53.00" departPos="100.00" arrival="235.00" arrivalPos="93.20" duration="182.00" routeLength="221.25" timeLoss="10.33" maxSpeed="1.29"/>
    </personinfo>
    <tripinfo id="SN_44" depart="198.50" departLane="3_1_2" departPos="5.10" departSpeed="0.00" departDelay="0.50" arrival="235.00" arrivalLane="1_5_1" arrivalPos="186.40" arrivalSpeed="13.00" duration="36.50" routeLength="395.15" waitingTime="0.00" waitingCount="0" stopTime="0.00" timeLoss="5.71" rerouteNo="0" devices="tripinfo_SN_44" vType="cars" speedFactor="1.00" vaporized=""/>
    <tripinfo id="NS_45" depart="200.00" departLane="5_1_2" departPos="5.10" departSpeed="0.00" departDelay="0.00" arrival="235.50" arrivalLane="1_3_2" arrivalPos="186.40" arrivalSpeed="13.00" duration="35.50" routeLength="395.15" waitingTime="0.00" waitingCount="0" stopTime="0.00" timeLoss="4.96" rerouteNo="0" devices="tripinfo_NS_45" vType="cars" speedFactor="0.87" vaporized=""/>
    <tripinfo id="SN_46" depart="202.00" departLane="3_1_2" departPos="5.10" departSpeed="0.00" departDelay="0.00" arrival="237.50" arrivalLane="1_5_1" arrivalPos="186.40" arrivalSpeed="13.00" duration="35.50" routeLength="395.15" waitingTime="0.00" waitingCount="0" stopTime="0.00" timeLoss="4.80" rerouteNo="0" devices="tripinfo_SN_46" vType="cars" speedFactor="1.02" vaporized=""/>
    <personinfo id="person_NS_w.5" depart="28.81" type="DEFAULT_PEDTYPE" speedFactor="0.91" duration="211.50" waitingTime="0.00" timeLoss="35.83" traveltime="211.50">
        <walk depart="29.00" departPos="100.00" arrival="240.50" arrivalPos="93.20" duration="211.50" routeLength="221.25" timeLoss="35.83" maxSpeed="1.26"/>
    </personinfo>
    <personinfo id="person_ES_diag.0" depart="51.35" type="DEFAULT_PEDTYPE" speedFactor="1.15" duration="191.50" waitingTime="0.00" timeLoss="49.99" traveltime="191.50">
        <walk depart="51.50" departPos="100.00" arrival="243.00" arrivalPos="93.20" duration="191.50" routeLength="226.69" timeLoss="49.99" maxSpeed="1.60"/>
    </personinfo>
    <personinfo id="person_WE_s.2" depart="64.24" type="DEFAULT_PEDTYPE" speedFactor="1.20" duration="179.50" waitingTime="0.00" timeLoss="46.85" traveltime="179.50">
        <walk depart="64.50" departPos="100.00" arrival="244.00" arrivalPos="93.20" duration="179.50" routeLength="221.17" timeLoss="46.85" maxSpeed="1.67"/>
    </personinfo>
    <personinfo id="person_WN_diag.3" depart="74.86" type="DEFAULT_PEDTYPE" speedFactor="1.13" duration="169.50" waitingTime="0.00" timeLoss="26.83" traveltime="169.50">
        <walk depart="75.00" departPos="100.00" arrival="244.50" arrivalPos="93.20" duration="169.50" routeLength="223.30" timeLoss="26.83" maxSpeed="1.57"/>
    </personinfo>